/*--------------------------------*- C++ -*----------------------------------*\
| =========                 |                                                 |
| \\      /  F ield         | OpenFOAM: The Open Source CFD Toolbox           |
|  \\    /   O peration     | Version:  4.0                                   |
|   \\  /    A nd           | Web:      www.OpenFOAM.org                      |
|    \\/     M anipulation  |                                                 |
\*---------------------------------------------------------------------------*/
FoamFile
{
    version     2.0;
    format      ascii;
    class       volScalarField;
    location    "0";
    object      nut;
}
// * * * * * * * * * * * * * * * * * * * * * * * * * * * * * * * * * * * * * //

dimensions      [ 0 2 -1 0 0 0 0 ];

internalField   nonuniform List<scalar> 
686
(
2.11509966366036043e-11
2.110700147648636e-11
2.12824236599929054e-11
2.14943810222924663e-11
2.20341414442602504e-11
2.75907925797579571e-11
2.04048397667212848e-08
2.11565960549848609e-11
2.1399842509132505e-11
2.13507274344383586e-11
2.23713760109539478e-11
2.334942722855393e-11
2.76200632643002823e-11
3.09102415285420716e-08
2.13384893433954341e-11
2.15684691243970536e-11
2.16104943855948383e-11
2.2571867966582716e-11
2.43148452767753857e-11
9.70379802230067094e-11
2.79468599659331029e-07
2.17356861665237535e-11
2.2351805691629741e-11
2.27636400702735669e-11
2.71605196389669528e-11
6.11986434576163913e-11
3.21569225194634934e-09
4.10586590802999295e-07
2.45082109021511857e-11
3.78253007584579121e-11
1.65754340935324365e-10
5.40158954632341298e-09
3.33936841782401964e-07
6.62133200448235655e-06
2.49077113614810364e-05
1.06870020406974206e-10
5.06915466994821098e-09
6.38836147254870488e-07
7.50713072526265819e-06
2.51952474548763955e-05
4.93765903497103765e-05
6.78875205587477687e-05
1.04284381116886697e-07
6.96991594719630867e-06
2.88085549184664356e-05
7.581106639553059e-05
0.000158986094477862937
0.000271671223438528606
0.000195880463063148483
2.10701577294961057e-11
2.13421886719016706e-11
2.19690157151949201e-11
2.33919881147431051e-11
2.74602874647359424e-11
2.65631516758835688e-11
2.90724546602069107e-09
2.09895714611474897e-11
2.09835343612852263e-11
2.11381377547002892e-11
2.14992377153054613e-11
2.25864565968002258e-11
2.58704020028337686e-11
1.3048323928055146e-09
2.09104315811461716e-11
2.08713984736128165e-11
2.09153811403947092e-11
2.10657288080041432e-11
2.14754740192426649e-11
2.51000402190792244e-11
2.35725766337152532e-10
2.09026305768198564e-11
2.09205310194573528e-11
2.0955770756424031e-11
2.09750308468237757e-11
2.13638621791608399e-11
2.26912315385641147e-11
4.98172564209855867e-11
2.08878687310437354e-11
2.09261692108691349e-11
2.10765276877612121e-11
2.12838340876127019e-11
2.14756575257263966e-11
2.24788842171330447e-11
6.89812238101826845e-10
2.09048310127613197e-11
2.0910679253490862e-11
2.09971724038444944e-11
2.14797319137348301e-11
2.16198401059570577e-11
2.45023569534206064e-11
3.17577289639015049e-09
2.09703522292680729e-11
2.10526670103986031e-11
2.10602861799555041e-11
2.14737244448472149e-11
2.21610648239902169e-11
2.3902741467619849e-11
3.95130512585461424e-09
0.000105123399463717099
0.000211597383774103507
0.000200033091426648818
0.000184850847859072657
0.000117336718407092973
8.77666470741854523e-05
6.73405102764786258e-05
6.57365100783024943e-05
0.000329107557723731813
0.000490657082744616309
0.000419265657006087276
0.000210282578644368508
0.000100564165044566225
3.05054209011899493e-05
0.000111312254203321947
0.000169223441023385837
0.00015447775806442981
8.73476417650457306e-05
4.18920558761711875e-05
1.8928680191704077e-05
2.41476843478523575e-06
2.99527782825976914e-05
1.75983265428738564e-05
7.78813653853057403e-06
2.05267643922231061e-06
3.03449447082058527e-07
2.71664012638065704e-08
1.20610237305462892e-09
5.59110438523334556e-06
3.57186900395785848e-07
9.54039496537829582e-09
3.44688659624542309e-10
5.39864865783274416e-11
2.97035586369533672e-11
2.43260577267861864e-11
1.01475545565328181e-08
8.07052092158782346e-11
3.05328679867759587e-11
3.19874916551077066e-11
2.24642302945590693e-11
2.29977707264827952e-11
2.16942116144849726e-11
8.61736836294419153e-09
2.85130729546739956e-11
2.68447927521543599e-11
2.40494906664892981e-11
2.2260683005869883e-11
2.26728459021177237e-11
2.15072590538719788e-11
0.000185220304181533713
0.000383539026018630516
0.000575245271765062764
0.000480665726705372493
0.000161413535169572538
5.96341735788210879e-05
1.43129496650089979e-05
0.000196210142082585165
0.000337690818888748017
0.000493058670562376996
0.000660952104774608067
0.000598817895634079131
0.000299483568754706816
8.02164746773917592e-05
7.72693383115462663e-05
0.000333010724106879341
0.00041570203740830757
0.000408379961948253205
0.000505314530661135782
0.000387081771733733236
0.000147898647016900952
0.000133275898745822285
0.000409725032000571624
0.000423415794752528447
0.000290817748148839285
0.000255227633602837149
0.000249579107510606202
0.000122433621915046722
0.000163622928129763948
0.000429099500998223761
0.000516025162485673821
0.000333783180828947396
0.000178418190116546839
0.000131561615787713338
8.62177687944505231e-05
0.000167255045025038816
0.000391758455347565181
0.000524439101952541269
0.00047450984663639312
0.000300816756607825519
0.000158211936801599896
8.61738380315835704e-05
0.000154523040897856795
0.000331046225265522586
0.000247932028943439141
0.00019125788751785851
0.000159320727189461898
0.000153183473652167171
0.000143573965228844554
2.12831556335072697e-11
2.12656156748345392e-11
2.12428220827544084e-11
2.12037281933203537e-11
2.10846315894147455e-11
2.10966271110669188e-11
2.11756974657004317e-11
2.12330954771189474e-11
2.11850521795818577e-11
2.11379289208088664e-11
2.11229052166379211e-11
2.10528249651509293e-11
2.11423650580683238e-11
2.11944776462155112e-11
2.12091451957801232e-11
2.11862525533338319e-11
2.12008519571987113e-11
2.11699245410788019e-11
2.10015626656414271e-11
2.10834620446636703e-11
2.1211003101318501e-11
2.08700690005865381e-11
2.10069053329004213e-11
2.11041579208229177e-11
2.11106575062391618e-11
2.10110146165121935e-11
2.1251438240806478e-11
2.13862484327088079e-11
2.08259574813505895e-11
2.10036948371845753e-11
2.13067990103855005e-11
2.14953011400834617e-11
2.16886371837630261e-11
2.19980772442782705e-11
2.19812174115873654e-11
2.30937673745292492e-11
2.59063457286343446e-11
3.06542058395168704e-11
3.71351688591391003e-11
3.98492441259705211e-11
3.19176120225136616e-11
2.7688039273096638e-11
2.10827797181057349e-10
5.96908954795573745e-10
1.64783789580800367e-09
3.11040597183496727e-09
1.92378785433851865e-09
3.37132335111424551e-10
1.79443411177214594e-10
4.03206958666201735e-08
5.63507043550447086e-06
1.51294115498597806e-05
2.16453205407895699e-05
3.30387860411677269e-05
8.72884623162019179e-05
0.00012409112590004137
1.23586046286481141e-07
9.30176225412063878e-06
3.1110774009336508e-05
0.000122138599555796356
0.000216983170315010351
0.000158075037127302406
5.54751568948442302e-05
3.43584727316216833e-06
5.2611549425356463e-05
0.000144435534134432859
0.000216101206884459308
0.000204608345486815023
7.39036007941453637e-05
1.56277087497022121e-05
7.6374907885437623e-06
8.12389758544283759e-05
0.000110714205602958199
0.000129290385100097187
8.31667592812177159e-05
1.88745613135517668e-05
8.03961365324703604e-07
8.35180477082143515e-06
7.67531838457004788e-05
6.49712040171769573e-05
4.02268441774783318e-05
1.76024665866530236e-05
1.20084590635574546e-06
9.72371074515845681e-09
4.82465790741595293e-06
7.468075595089701e-05
9.48478982626220078e-05
4.94468034686139211e-05
2.10983527267492914e-05
2.69436501890927583e-06
1.88120039729730253e-09
7.4097349964558065e-07
4.10051876462366207e-05
9.69552942630191666e-05
0.000113252423517588003
8.17137575921141458e-05
2.01775086141693901e-05
2.01718520329104628e-09
1.80332909700539914e-05
2.44253308145785683e-06
7.02216627656719749e-09
3.43475743131805238e-11
2.12308351074608505e-11
2.10669980066362118e-11
2.1086093645680935e-11
4.82542420364017503e-06
1.78412605478000605e-08
8.41866361488120465e-11
2.16186036184821072e-11
2.10680390496851304e-11
2.10955133865206799e-11
2.11252463285725872e-11
1.83339204513855711e-07
3.48057568783461302e-10
2.55884812638035146e-11
2.11260649089979113e-11
2.12204287726142835e-11
2.12376148950477299e-11
2.12180281472684198e-11
2.50774229601548068e-09
4.60327275118157088e-11
2.14839289879180767e-11
2.10423299429958466e-11
2.12391261446102046e-11
2.13139184833386491e-11
2.13188412660751618e-11
1.26566417540299411e-10
2.45357446461874802e-11
2.11455610251083041e-11
2.10272171919168203e-11
2.1130144296197882e-11
2.12662528411168345e-11
2.13468840867577467e-11
3.87049742806347633e-11
2.1738777957447845e-11
2.11347274156436956e-11
2.09892362055642163e-11
2.1068055747313009e-11
2.1204377717732932e-11
2.1348466985553817e-11
3.07869566179529717e-11
2.11745123574090779e-11
2.10328208681116968e-11
2.09200922074980647e-11
2.09836502312202668e-11
2.11679445887276017e-11
2.13488872235647147e-11
2.11497360276373083e-11
2.10705408830938824e-11
2.09766965534692012e-11
2.0955148029580268e-11
2.09952118904169935e-11
2.10171566846087043e-11
2.10298238637126294e-11
2.11808184118996802e-11
2.11785021774425063e-11
2.1143817438508664e-11
2.11431509827705522e-11
2.10584749242914266e-11
2.10914275230781469e-11
2.10693325554911922e-11
2.11908179715974552e-11
2.12494085233177032e-11
2.12474992720328863e-11
2.12215748928068923e-11
2.11340604523759943e-11
2.11286707125110654e-11
2.10796839927590047e-11
2.12938683812221555e-11
2.1272956271318813e-11
2.12921390040594135e-11
2.12849449467271852e-11
2.12557499179872542e-11
2.12603331960590639e-11
2.12198486333080513e-11
2.13638019738041031e-11
2.13549781223792395e-11
2.13395475827000907e-11
2.13227285887168061e-11
2.13220398613005702e-11
2.13381775948325919e-11
2.13455641487684534e-11
2.13915379344193108e-11
2.14060735181784979e-11
2.1394461685959624e-11
2.14001821125908685e-11
2.14022904085882406e-11
2.14065645539855689e-11
2.13980558364325535e-11
2.14064605553509191e-11
2.1475074024717229e-11
2.1471450793272781e-11
2.14809854016276425e-11
2.14741751641220759e-11
2.14839680838799328e-11
2.14557468255281507e-11
2.25850405213382737e-11
2.24836642578093055e-11
2.21356336031887008e-11
2.14863092474734369e-11
2.05272391035841041e-11
2.02059579514299773e-11
2.55935884494320771e-09
2.24655350227827242e-11
2.21069308378090403e-11
2.08454319751159134e-11
1.89776198610236999e-11
1.64552003352024794e-11
1.57204647966475454e-11
2.92561409877253785e-10
2.2039680938353346e-11
2.08039437560120509e-11
1.68813256316811178e-11
1.24407194710351153e-11
7.23733302758955833e-12
4.35790921791915696e-12
2.73260188968656706e-11
2.07206016951097459e-11
1.6777093985289173e-11
7.66280161740944673e-12
2.27508463894856076e-12
6.80489174488050517e-13
3.14178134505534708e-13
2.41926971201634399e-12
1.7343205766479395e-11
7.90750177945803801e-12
7.20691859668068611e-13
1.4019356707008036e-13
2.95542949856567046e-14
1.20929523599938522e-14
1.9370905146647692e-13
1.19416670959373484e-11
9.77299336134739315e-13
4.01458087011873919e-14
5.33079018182200359e-15
7.21502455714086891e-16
3.00323499612104301e-16
1.41856443553624941e-15
2.92440327702357924e-12
2.22284596478033647e-14
4.87599197815675926e-16
4.58476202028703225e-17
4.14930714813636796e-18
1.92808607666785571e-18
3.52998140638366798e-18
2.34211589447799606e-11
2.06384738801546289e-11
2.10421984121434072e-11
2.12180266492474776e-11
2.14931903643534866e-11
2.15936850034035552e-11
2.17563144079353467e-11
2.12029325997342374e-11
2.14109179359988455e-11
2.17803770627807523e-11
2.19172222973316893e-11
2.21075923948187907e-11
2.21745414017541663e-11
2.22781692862235486e-11
2.18891682135019168e-11
2.20972591305416321e-11
2.22586374560234706e-11
2.23332988139898471e-11
2.24353193143450354e-11
2.24583171242287182e-11
2.24834134701453931e-11
2.22897731806697678e-11
2.24125772582507646e-11
2.24841182300789192e-11
2.25153834492408284e-11
2.256046194408712e-11
2.2570985539476128e-11
2.25804325907257887e-11
2.2511802030957643e-11
2.25620621110757243e-11
2.25814339054884581e-11
2.25948544094258044e-11
2.26106388033337871e-11
2.26148529335705661e-11
2.26187311581416104e-11
2.2590428947149959e-11
2.26085723660499807e-11
2.26174736432816252e-11
2.26255891978328452e-11
2.26293894579923209e-11
2.2631951959352971e-11
2.26336473406793877e-11
2.26214702914310396e-11
2.2634408270256917e-11
2.26403309637005643e-11
2.26403344845182919e-11
2.26391461205292628e-11
2.26406578172148214e-11
2.26397358064623564e-11
2.18031015891062143e-11
2.19083727465930735e-11
2.19101553508651527e-11
2.18669195457168637e-11
2.19119298819487294e-11
2.19107891103763492e-11
2.17990749000028539e-11
2.23168161291111555e-11
2.23624413067670981e-11
2.24000538484355675e-11
2.23448160494713769e-11
2.2401091406419385e-11
2.23649459056985438e-11
2.23142133258377207e-11
2.25254313471044959e-11
2.2538178201348187e-11
2.25637920975045245e-11
2.25414643213603423e-11
2.25643554003689722e-11
2.25396105655186355e-11
2.25268718419668944e-11
2.25975569256338747e-11
2.26015477300737989e-11
2.26121567332665233e-11
2.26046099698582818e-11
2.26120342783210193e-11
2.26020092325281971e-11
2.25978527113785828e-11
2.26242503315724335e-11
2.26253728068093037e-11
2.26270198596759102e-11
2.26230917712772903e-11
2.26266468386759024e-11
2.26251013330581824e-11
2.2624227583393221e-11
2.2633995723805673e-11
2.26323885913301676e-11
2.26309351708504046e-11
2.26284431666815622e-11
2.26305269134965316e-11
2.26319981548242452e-11
2.26337331118345959e-11
2.26373906765498577e-11
2.26338219575694956e-11
2.2631220812845605e-11
2.26298251918069307e-11
2.26309308783196944e-11
2.26336420448204996e-11
2.26371330489848489e-11
2.17469866011215063e-11
2.16263281629999468e-11
2.14666545972420109e-11
2.11628499640748142e-11
2.10248139400666762e-11
2.05998288585642e-11
2.17959378062451967e-11
2.22742177943561624e-11
2.2170021560926155e-11
2.21065938978609562e-11
2.19217763835357404e-11
2.17830818164186336e-11
2.13802210198402434e-11
2.12327378203928595e-11
2.24844666846300887e-11
2.24591581690032043e-11
2.24347885977931067e-11
2.23313211416708927e-11
2.22583767318518101e-11
2.21017895850471747e-11
2.18922376567910776e-11
2.25804688036688921e-11
2.25710379017725551e-11
2.25592159201046996e-11
2.2513959746114398e-11
2.24839446869577612e-11
2.241465125293331e-11
2.2288930777274151e-11
2.26187799640227247e-11
2.26153577331199181e-11
2.26093712200570446e-11
2.25950616294044328e-11
2.25825637510872768e-11
2.25618750052286029e-11
2.25117087678863761e-11
2.26335010284818983e-11
2.26320151310254028e-11
2.26284024591757148e-11
2.26261048672564762e-11
2.26173438618186322e-11
2.26066865555391876e-11
2.25881324757848506e-11
2.26394863283425032e-11
2.26403251729638755e-11
2.26389713636956985e-11
2.26399112725009356e-11
2.26397945342671166e-11
2.26337784199321677e-11
2.26206373299229433e-11
3.38445742239246586e-09
3.90194149929039332e-10
3.52178345804866214e-11
2.90767549347388809e-12
2.22571388565569832e-13
1.56417786620239096e-15
3.74532358063526757e-18
2.0280555150571542e-11
1.57500937595694018e-11
4.39070533761277537e-12
3.16378507218124845e-13
1.22238537467867243e-14
3.03871008624459996e-16
1.94226238911162048e-18
2.05393451931381824e-11
1.65002031968083548e-11
7.33619690054823092e-12
6.97329235876013815e-13
3.0554259379717922e-14
7.55391455678149472e-16
4.39545655757785881e-18
2.14942900261200047e-11
1.90188731116293531e-11
1.25613212057103573e-11
2.36294905838229532e-12
1.48958260323378686e-13
5.83439934811690897e-15
5.16740002235766445e-17
2.21488890224939691e-11
2.09112612355332394e-11
1.71066803670679747e-11
8.14942715116220442e-12
8.21190444661628171e-13
4.93639133751949059e-14
6.62571679772357057e-16
2.24854248549618188e-11
2.2124275317780053e-11
2.08777249813950295e-11
1.70209407310794794e-11
8.63778201513474224e-12
1.25565499349876233e-12
3.90950067828208072e-14
2.25859818574778631e-11
2.24715916395036343e-11
2.20704275401180617e-11
2.08521891187602799e-11
1.78186120511680321e-11
1.28997732828632754e-11
4.82629261333914921e-12
1.85885893338717785e-05
5.79727888655087167e-05
7.16853696041879829e-05
7.61795232578383615e-05
6.48557161136769717e-05
4.95215012383566904e-05
1.8650418363179294e-05
1.16572908188294745e-05
4.13308379242926201e-05
3.25507152017906319e-05
2.02642838512671687e-05
3.70137717530050279e-05
4.26924960069755745e-05
1.10282688278029276e-05
4.82451707940699631e-07
1.22690306826822409e-05
8.71046710664909551e-06
2.57522372388630542e-07
9.64258977394122372e-06
1.39399877450680543e-05
3.85777656487069751e-07
3.24054376621162333e-09
5.77332455657651052e-07
3.09737315350817139e-07
4.77766181420200598e-10
3.30760879766462582e-07
7.10378701797043324e-07
2.67060481476753816e-09
1.72336407381476017e-11
3.77704996619941235e-09
2.30941748676574599e-09
1.35235038036586793e-12
2.34486532658101941e-09
4.32298158942799649e-09
1.43790395992857839e-11
5.31938109418555431e-14
1.79029274967881652e-11
1.69185200236220618e-11
7.9011971895150371e-15
1.74184700618648592e-11
1.83747115181341346e-11
4.291793772228073e-14
6.33304509961037157e-17
4.3405641301668681e-14
4.34618736249455572e-14
1.58518202124725205e-17
4.58041406889715923e-14
4.14130452554480339e-14
5.2195177196795452e-17
)
;

boundaryField
{
    far
    {
        type            cyclic;
    }
    wall
    {
        type            fixedValue;
        value           uniform 1.00000000000000004e-10;
    }
    near
    {
        type            cyclic;
    }
    inflow
    {
        type            fixedValue;
        value           uniform 9.99999999999999955e-08;
    }
    outflow
    {
        type            zeroGradient;
    }
}


// ************************************************************************* //
