/*--------------------------------*- C++ -*----------------------------------*\
| =========                 |                                                 |
| \\      /  F ield         | OpenFOAM: The Open Source CFD Toolbox           |
|  \\    /   O peration     | Version:  4.0                                   |
|   \\  /    A nd           | Web:      www.OpenFOAM.org                      |
|    \\/     M anipulation  |                                                 |
\*---------------------------------------------------------------------------*/
FoamFile
{
    version     2.0;
    format      ascii;
    class       volScalarField;
    location    "0";
    object      nuTilda;
}
// * * * * * * * * * * * * * * * * * * * * * * * * * * * * * * * * * * * * * //

dimensions      [ 0 2 -1 0 0 0 0 ];

internalField   nonuniform List<scalar> 
686
(
2.94958865183807209e-07
2.948073387264125e-07
2.95237744811070745e-07
2.9606517825631599e-07
2.97709529603587283e-07
3.1496321306764571e-07
1.66168108172301779e-06
2.95023000012694993e-07
2.95880655127404204e-07
2.95698703481302478e-07
2.99170376747903661e-07
3.02152789680068084e-07
3.15350507887580164e-07
1.8477347298621529e-06
2.95673015951170015e-07
2.96448977240024976e-07
2.96081101724113444e-07
2.98667487190892801e-07
3.05110395615887993e-07
4.39873772538581617e-07
3.28968656827683536e-06
2.96919665519496414e-07
2.99141194978350113e-07
3.00479979192590495e-07
3.15707711833416172e-07
3.89749082025901379e-07
1.07202635202433118e-06
3.65330927847369536e-06
3.05974418114354866e-07
3.4343393003432793e-07
5.09243154873178292e-07
1.25557197465133962e-06
3.64174318159370746e-06
9.90512693609521976e-06
2.55420330247618671e-05
4.86217350866395635e-07
1.36880575778874898e-06
4.27898616341895003e-06
1.04830771176788651e-05
2.58562090133446648e-05
4.95732624581462142e-05
6.79903027235789835e-05
3.02715017268948449e-06
1.0826376699508864e-05
2.94150893091696131e-05
7.589222150141916e-05
0.000159004640701153099
0.000271676618620579505
0.000195892740784065384
2.94767693473278529e-07
2.95696505497065623e-07
2.97878244573381484e-07
3.02659891671587185e-07
3.15080507036635101e-07
3.12276381358026416e-07
1.01350250321897685e-06
2.94462170315244105e-07
2.94423740517662518e-07
2.94996638618224693e-07
2.96238842691133455e-07
3.00002173324795347e-07
3.10636051941270024e-07
8.33314168816315265e-07
2.94169195519980064e-07
2.94026788114937383e-07
2.94185349508793877e-07
2.94731498756716816e-07
2.96151857256948002e-07
3.07801345726110152e-07
5.36099153953082254e-07
2.94139762718673729e-07
2.94212265348949936e-07
2.94333000258354041e-07
2.94388753429080799e-07
2.95772940780050619e-07
3.00491794954777612e-07
3.69496778470792326e-07
2.94117166355251156e-07
2.94240041519219877e-07
2.94769755294492918e-07
2.953239293278119e-07
2.96318744685666281e-07
2.99522425440835313e-07
7.09505875852236983e-07
2.94151576633455307e-07
2.94150041844388471e-07
2.94408181795241137e-07
2.96131859298146875e-07
2.96429488875613702e-07
3.05437508038390842e-07
1.03768930200077417e-06
2.94330293177484127e-07
2.94683815238315801e-07
2.94655549265548502e-07
2.96148570010911812e-07
2.98084080802237302e-07
3.0383013470840711e-07
1.09478651608366281e-06
0.000105153242751770428
0.000211605107820205934
0.000200042467306509074
0.000184861327183093638
0.000117365045334804756
8.78125567728592951e-05
6.74092205870447286e-05
6.58165934150672694e-05
0.000329110728879888328
0.000490658545255726031
0.000419267799420157969
0.000210291735186021825
0.000100607927738737322
3.10093306093358614e-05
0.000111344309629396134
0.000169235667395827434
0.000154492731508875579
8.7397763708172945e-05
4.21132208169731811e-05
1.99736008102168818e-05
6.51890115404788798e-06
3.03621349100511125e-05
1.86012746904428369e-05
1.02732880905143448e-05
5.73916643699284358e-06
3.27028472836405172e-06
1.75660850414552405e-06
8.31311795028937607e-07
8.56064019373139203e-06
3.457723236020319e-06
1.34693946161071104e-06
5.87490404591713617e-07
3.71484146831872004e-07
3.21009792243977438e-07
3.05336158313129439e-07
1.37954196636138096e-06
4.07656037450515394e-07
3.23317084811495438e-07
3.26821839671862681e-07
2.99465454399969905e-07
3.01348492414808781e-07
2.96841371625891227e-07
1.32482094309002039e-06
3.16833105800035059e-07
3.13639267237383137e-07
3.0465833735318429e-07
2.98950073434323251e-07
3.00225396875485694e-07
2.96237073419263344e-07
0.000185233928482496027
0.000383541116684188996
0.000575246448514693661
0.000480667725353729714
0.000161435157721363912
5.97791602779055358e-05
1.61326164955573974e-05
0.000196219220369371432
0.000337693696387694601
0.000493060003163722023
0.000660953006632193966
0.000598819135564283974
0.00029949150334871111
8.03249975781664339e-05
7.73390903423058876e-05
0.000333014105699307292
0.000415704381249561031
0.000408381984568175502
0.000505316307860120004
0.000387086142835514114
0.000147928889737498627
0.000133297235806800675
0.000409727577627057001
0.000423418477385388602
0.000290823062072081636
0.000255233730686361406
0.000249588520248381236
0.000122475775438229885
0.000163631011730261665
0.000429101680931002214
0.000516026737007332058
0.000333787475474655411
0.000178434227356315408
0.000131587168656997397
8.62859214001430644e-05
0.00016727861068394797
0.000391760724615063322
0.000524440211164096015
0.000474511092615881379
0.000300820201236158362
0.000158225838496315306
8.62255627859046387e-05
0.000154532791879897948
0.000331048598657238222
0.000247934697447362885
0.000191265076878143885
0.000159330378274532907
0.000153196804483189024
0.000143591552818873592
2.95465228894331729e-07
2.95414527026767068e-07
2.95340656154475298e-07
2.95201727972091765e-07
2.94780391523902145e-07
2.94814446365721204e-07
2.95073360081228362e-07
2.95283001193919791e-07
2.9511784751193288e-07
2.94948874177904576e-07
2.94904359718753523e-07
2.94668475351138042e-07
2.94989223133054963e-07
2.951991904732665e-07
2.95219838890965119e-07
2.95133892643505601e-07
2.95171536454850474e-07
2.95059815457150736e-07
2.94485821352686169e-07
2.94769147680646733e-07
2.95209028207537236e-07
2.94053215761222136e-07
2.94517675122842121e-07
2.94849818686701732e-07
2.94855316380640391e-07
2.94517813553375598e-07
2.95287806238886771e-07
2.95779135333702451e-07
2.93876759040640566e-07
2.94488348606971027e-07
2.95542280972832557e-07
2.96086542998408696e-07
2.96679039412997107e-07
2.97626928605561879e-07
2.97666031076201142e-07
3.01583509152695478e-07
3.0995757022197629e-07
3.222914873332216e-07
3.36359002660866231e-07
3.40365640266937705e-07
3.22540699183822266e-07
3.15254364858804292e-07
5.24604373349786286e-07
6.72351301097768741e-07
8.5293113532901088e-07
9.80666194376134897e-07
8.49872224186871185e-07
5.52168638075884341e-07
5.30416515609369497e-07
2.19178339601554966e-06
9.57869293026231494e-06
1.70324052032356015e-05
2.22934065604043083e-05
3.33244801939943714e-05
8.73162089277557406e-05
0.000124111453783810405
2.36313210038097706e-06
1.09827175109793616e-05
3.13462292555857823e-05
0.000122151584191059029
0.000216989650630653336
0.000158089368669841817
5.56005354295714444e-05
6.57279492270976193e-06
5.27054638713948118e-05
0.00014445163526666401
0.000216109012896963906
0.000204617058339221945
7.39859512026300799e-05
1.70601475688522957e-05
9.89781636713981814e-06
8.12926080329036963e-05
0.000110749631237044372
0.000129319363711644081
8.32466533451641931e-05
2.0064998451074863e-05
4.66284975116331156e-06
1.05796500040356017e-05
7.68128693057902031e-05
6.50587332724150908e-05
4.04888150368465689e-05
1.88206395981153148e-05
5.10100330832151728e-06
1.42095735953082055e-06
8.03265419196447717e-06
7.47453634091066032e-05
9.48829076382609539e-05
4.95402993685588902e-05
2.16503064630665881e-05
5.98032525039759817e-06
8.96881673476866264e-07
4.28274441161529823e-06
4.12559625665327644e-05
9.69937150025461273e-05
0.000113278297634637187
8.17595805725429499e-05
2.07621613377410038e-05
8.99007572862695256e-07
1.8879984208414759e-05
6.41031062030550386e-06
1.30208194712581557e-06
3.34420662297828714e-07
2.95228286212377795e-07
2.94709844572030823e-07
2.94787007083368957e-07
8.04926408821450127e-06
1.6275433243439315e-06
4.20529504321510858e-07
2.96687364529731876e-07
2.94726294553912268e-07
2.94815027836209139e-07
2.94933170058262863e-07
2.9584464077035657e-06
6.01180504429844408e-07
3.1000929963207595e-07
2.94943350421519853e-07
2.95253781495403105e-07
2.95303285221924017e-07
2.95233394655119853e-07
1.01003373382429428e-06
3.60646216154784923e-07
2.96277519490781904e-07
2.94652843512752875e-07
2.95329438967246574e-07
2.95576857906691103e-07
2.95582442138301655e-07
4.7121768896265997e-07
3.06872425590070312e-07
2.95031185586413164e-07
2.94576706758554053e-07
2.94936049961773758e-07
2.95418704853840225e-07
2.95680555184723076e-07
3.44890849761241449e-07
2.97187596125390566e-07
2.94962067817622874e-07
2.94433513580092322e-07
2.94718369115494154e-07
2.95202766480557603e-07
2.95686000510970208e-07
3.23350679882237564e-07
2.95114888524685662e-07
2.94590043370669284e-07
2.94181821969212254e-07
2.94419485771524086e-07
2.95081629875450637e-07
2.95688919366976143e-07
2.950256978293114e-07
2.9472036411708259e-07
2.94404718454813128e-07
2.94335452922295259e-07
2.94481683002296509e-07
2.94566293282019748e-07
2.94592833105355704e-07
2.95121046504267983e-07
2.95112818220935156e-07
2.9499421202233515e-07
2.9498744769626058e-07
2.94686485661686318e-07
2.94805747665892842e-07
2.94717713958028883e-07
2.95142490767820928e-07
2.95343159259299517e-07
2.95338391073065839e-07
2.95249823594259621e-07
2.94953130151960943e-07
2.94933316608428762e-07
2.94766061094326691e-07
2.95493613790580515e-07
2.95420883044142653e-07
2.95487151275089986e-07
2.95458081148133675e-07
2.9537051395508829e-07
2.95389400709669449e-07
2.95257227986727326e-07
2.9573643171725008e-07
2.95707297755618539e-07
2.95650032626480749e-07
2.95591447640023571e-07
2.95596780088536429e-07
2.95651169297113412e-07
2.95686200272531741e-07
2.95830672750448558e-07
2.95880644683658642e-07
2.95842845961861211e-07
2.95869788830493663e-07
2.95877523507494802e-07
2.95891020193261346e-07
2.95865230853708437e-07
2.95883463411148617e-07
2.96124858132540143e-07
2.96111761133739096e-07
2.96142793011147083e-07
2.96118537870561796e-07
2.96152259495326342e-07
2.96057673235361281e-07
2.99853282975728508e-07
2.99518582985558849e-07
2.98361151203517902e-07
2.96164020646188674e-07
2.92822550196525921e-07
2.91721356733848821e-07
9.82357668029008841e-07
2.9945853073443757e-07
2.98264478184066629e-07
2.93943358863932633e-07
2.87174696653149208e-07
2.77176920209916941e-07
2.74104736248367769e-07
5.71467322380827914e-07
2.98038236537140326e-07
2.93797187830861722e-07
2.78939290488097019e-07
2.58599135817611931e-07
2.26109811845073979e-07
1.99332046402368479e-07
3.15975649443432489e-07
2.93499758069590265e-07
2.78508782715580686e-07
2.29326493897234777e-07
1.69492217729873586e-07
1.25393000366353572e-07
1.03402194461933525e-07
1.72328808907165642e-07
2.80790001373840339e-07
2.3108451432710834e-07
1.27166138550495063e-07
8.45138796409126637e-08
5.73013309387712649e-08
4.58375254173225459e-08
9.18440427466136893e-08
2.55831875651972702e-07
1.37207154059047588e-07
6.18335590314062592e-08
3.73516442394110451e-08
2.26710951349829046e-08
1.82107825640709604e-08
2.69130738445080257e-08
1.80197510895979308e-07
5.33176340412587735e-08
2.05396827345754651e-08
1.13824990189978315e-08
6.24768358133032511e-09
5.15814798074070975e-09
6.01344328937020106e-09
3.02919425176362259e-07
2.93225706129336081e-07
2.94632962825395368e-07
2.95244656686918618e-07
2.96181113597873134e-07
2.9652921861520595e-07
2.97082773396992124e-07
2.95188510884646484e-07
2.9590074664535197e-07
2.97163545245465321e-07
2.97627139403894582e-07
2.98266610146517345e-07
2.98490359447745163e-07
2.98835654951508538e-07
2.97531567169570396e-07
2.98230763064563557e-07
2.98770752037531708e-07
2.99020182930086657e-07
2.99357999894200502e-07
2.99433680833790577e-07
2.9951740240950239e-07
2.98875505864247767e-07
2.99282723606864003e-07
2.99519495426267206e-07
2.99623151723055568e-07
2.99771939070740204e-07
2.99806516813646505e-07
2.99837970619043294e-07
2.99611761705127085e-07
2.99777341975054133e-07
2.99841092624380445e-07
2.99885542964170347e-07
2.99937580097012888e-07
2.9995145409435054e-07
2.99964350835622405e-07
2.99871010373441165e-07
2.99930728410043204e-07
2.99960228458201441e-07
2.99986987814374643e-07
2.99999487106181223e-07
3.00008001521338402e-07
3.00013587131556432e-07
2.99973669982838666e-07
3.00016450403678534e-07
3.00035838801845403e-07
3.00035814829184574e-07
3.00031861373869326e-07
3.00036778699848893e-07
3.00033664244556964e-07
2.97239266337448785e-07
2.97595916026685588e-07
2.97601678756780545e-07
2.9745538691135198e-07
2.97608202220205503e-07
2.9760452939488886e-07
2.97227492095394257e-07
2.98964292627833185e-07
2.99116848244111238e-07
2.9924149489776153e-07
2.9905739842636305e-07
2.99244834080999151e-07
2.99125355762596671e-07
2.98956136057648147e-07
2.99656448463719202e-07
2.99698688618302945e-07
2.99783172431392418e-07
2.99709193676716657e-07
2.99785000198533175e-07
2.99703543630508355e-07
2.99661225543786491e-07
2.99894492933447841e-07
2.99907703637599468e-07
2.99942585778010381e-07
2.99917610002565941e-07
2.99942188368833106e-07
2.99909210253224877e-07
2.99895470822635286e-07
2.99982502801068903e-07
2.9998617490566374e-07
2.99991543014909752e-07
2.9997852808178799e-07
2.99990310451813291e-07
2.9998526917258764e-07
2.99982414576659169e-07
3.00014646474350219e-07
3.00009262378686323e-07
3.00004419354790843e-07
2.99996149540008643e-07
3.00003070251537927e-07
3.00007969304137545e-07
3.00013774111379992e-07
3.00025818184779593e-07
3.00013961530147936e-07
3.00005338102329283e-07
3.00000699441325111e-07
3.00004357978532234e-07
3.0001333716909359e-07
3.0002494771056843e-07
2.97050372715976253e-07
2.96641605175790611e-07
2.96101835148108473e-07
2.95046848565481776e-07
2.94567069980746606e-07
2.93079246714927352e-07
2.97107878315209253e-07
2.98823140081126043e-07
2.98475236726393261e-07
2.98263086764558722e-07
2.97642752957962117e-07
2.97173073171205301e-07
2.95794568072908709e-07
2.95282210195822269e-07
2.995209349358205e-07
2.99436545497817834e-07
2.99356338557271664e-07
2.99013568477418634e-07
2.98769787623412798e-07
2.98246055598357571e-07
2.97542278451346119e-07
2.9983810555417726e-07
2.9980673592594714e-07
2.99767869738244842e-07
2.99618367245804658e-07
2.99518846724135369e-07
2.99289643338262611e-07
2.98872769240591994e-07
2.99964507662150574e-07
2.99953140033495591e-07
2.99933426040831805e-07
2.99886159513122882e-07
2.99844844413983607e-07
2.99776742747425408e-07
2.99611517398929348e-07
3.00013093441729476e-07
3.00008214174707088e-07
2.99996221382767508e-07
2.99988658250187305e-07
2.99959836112182825e-07
2.99924511293787455e-07
2.9986338985264115e-07
3.00032824094718077e-07
3.00035664615004973e-07
3.00031278860270482e-07
3.00034409427666167e-07
3.00034056271193708e-07
3.00014384187945618e-07
2.99970934840250654e-07
1.05407198798303502e-06
6.14194359733910591e-07
3.36699110093708411e-07
1.80468204067781374e-07
9.50989612458586857e-08
2.75806430319197312e-08
6.10360364152795477e-09
2.91993815886073362e-07
2.74179892393986856e-07
1.99756181151756726e-07
1.03583007557618314e-07
4.59610321836512359e-08
1.82643971739818096e-08
5.16764518885364835e-09
2.92865696147430484e-07
2.7736534705586628e-07
2.26874862538553766e-07
1.26161004653375542e-07
5.77797712858015442e-08
2.29325702517341416e-08
6.33828267766972355e-09
2.96191424316613648e-07
2.87329607500763572e-07
2.59216302573157066e-07
1.71103463571179389e-07
8.58033314083240117e-08
3.82033633631913244e-08
1.17277160873017648e-08
2.98405618136364545e-07
2.94173994615437069e-07
2.79861721566572624e-07
2.3286065976610651e-07
1.31382635482140503e-07
6.51087967817088453e-08
2.2173845010976393e-08
2.99524357070752874e-07
2.98322591810324196e-07
2.94055990052440114e-07
2.79509414290539591e-07
2.36211318024333151e-07
1.46052118110499545e-07
6.13792815987447571e-08
2.99856372211186286e-07
2.99478592133210496e-07
2.98141606917054088e-07
2.93961654160933386e-07
2.82684690421945287e-07
2.60796068608481136e-07
2.04133524911219609e-07
1.95025462364618249e-05
5.8079893313792822e-05
7.17553660972551383e-05
7.624189046980315e-05
6.4941911061015245e-05
4.96669023267758066e-05
1.95417420876231676e-05
1.34223143004272078e-05
4.15418308443990183e-05
3.28838269832454298e-05
2.10534988034316066e-05
3.7273576388441662e-05
4.2888454969782389e-05
1.29071039778909033e-05
3.77684337546739479e-06
1.39374364464997554e-05
1.10709612209661757e-05
3.18618467516925971e-06
1.18029288226640584e-05
1.53731924797652536e-05
3.55348751326304933e-06
1.04666151573347687e-06
3.97622953157600593e-06
3.35209402178089309e-06
6.48571684629724114e-07
3.41268972401959012e-06
4.21893266698218645e-06
9.97169044017858738e-07
2.82778893989322097e-07
1.08941861707150269e-06
9.62730942498145074e-07
1.49652617533255187e-07
9.66496247230418396e-07
1.12729142485350831e-06
2.70265785671357421e-07
6.67231854158951928e-08
2.85749339338001628e-07
2.81577112608955878e-07
4.13853028935262482e-08
2.836386073213572e-07
2.87711333692910847e-07
6.32369823913985459e-08
1.23957554547763257e-08
6.34129497979355828e-08
6.340810333470148e-08
8.75976349691296633e-09
6.42447751525494112e-08
6.2687866008460829e-08
1.18095249897194192e-08
)
;

boundaryField
{
    far
    {
        type            cyclic;
    }
    wall
    {
        type            fixedValue;
        value           uniform 1.00000000000000004e-10;
    }
    near
    {
        type            cyclic;
    }
    inflow
    {
        type            fixedValue;
        value           uniform 2.99999999999999986e-07;
    }
    outflow
    {
        type            zeroGradient;
    }
}


// ************************************************************************* //
