/*--------------------------------*- C++ -*----------------------------------*\
| =========                 |                                                 |
| \\      /  F ield         | OpenFOAM: The Open Source CFD Toolbox           |
|  \\    /   O peration     | Version:  4.0                                   |
|   \\  /    A nd           | Web:      www.OpenFOAM.org                      |
|    \\/     M anipulation  |                                                 |
\*---------------------------------------------------------------------------*/
FoamFile
{
    version     2.0;
    format      ascii;
    class       volScalarField;
    location    "0";
    object      nuTilda_0;
}
// * * * * * * * * * * * * * * * * * * * * * * * * * * * * * * * * * * * * * //

dimensions      [ 0 2 -1 0 0 0 0 ];

internalField   nonuniform List<scalar> 
686
(
2.94979515131322029e-07
2.94825332533975878e-07
2.95496167713511105e-07
2.96197505383111064e-07
2.98105641993120274e-07
3.15335218993317371e-07
1.64478391667020911e-06
2.94984165117967952e-07
2.95824056375727623e-07
2.95658171774003167e-07
2.99130394699304372e-07
3.02426198603324642e-07
3.15317499048521357e-07
1.82608710601352436e-06
2.95610227965018139e-07
2.96409421114667094e-07
2.96724622976731489e-07
3.00189714290445809e-07
3.05544676124201331e-07
4.29037099694950452e-07
3.21491903737819412e-06
2.97016386749805226e-07
2.99052861501181318e-07
3.00430974177109385e-07
3.13440490411691904e-07
3.83059860736753769e-07
1.02498202575204206e-06
3.56525008808465394e-06
3.06063900398167042e-07
3.40346031112819179e-07
4.88448424471782803e-07
1.15640281400851914e-06
3.3059765507734415e-06
8.96977317498653034e-06
2.41323589021194382e-05
4.28514298508183972e-07
1.09983287544354687e-06
3.97510326618921705e-06
9.66513609341959425e-06
2.38949333901758482e-05
4.47903500340483804e-05
6.18323488117276167e-05
2.33737545925691089e-06
8.64844226220894552e-06
2.57126613436380601e-05
6.94060402400647314e-05
0.000145309129464913495
0.000262182797835324788
0.000178737688412324751
2.94666884592918408e-07
2.95619482158225354e-07
2.97755388937198373e-07
3.0244073988972106e-07
3.14798132425738334e-07
3.12260811984254345e-07
1.00977937845228044e-06
2.94392464390255206e-07
2.94377042613347234e-07
2.94907131206458306e-07
2.96161914160224839e-07
2.99808413060738506e-07
3.10066022840259747e-07
8.24898521769932054e-07
2.94119559806049448e-07
2.9398387392585652e-07
2.94137381575266914e-07
2.94658297247209725e-07
2.96081732096165316e-07
3.07896525869774768e-07
5.39977911447925145e-07
2.94092786574755427e-07
2.94152551275549836e-07
2.94277381589930695e-07
2.94348929960549568e-07
2.95694047238081889e-07
3.0010813225360294e-07
3.64083433221019934e-07
2.94031064061325756e-07
2.94169718241472817e-07
2.94695891265627556e-07
2.95473945310847805e-07
2.96026976213139245e-07
2.99491395254060831e-07
7.03597244528753947e-07
2.9409916908184924e-07
2.94127105348536781e-07
2.94445996267082697e-07
2.9610796567633082e-07
2.96651078497693682e-07
3.06218760217055634e-07
1.03188057375751847e-06
2.94346527923859458e-07
2.94613269501678254e-07
2.9465823105950349e-07
2.96074786398068402e-07
2.98551821578613207e-07
3.04234663071297297e-07
1.09039911077893904e-06
0.000108029555872205164
0.000214032715159448385
0.000196919301410274658
0.00018482231598531223
0.00011402581104003535
8.81184204658721473e-05
7.05250137004148733e-05
6.64782905452358428e-05
0.000333655604703787453
0.000493345663263596457
0.000412211693920057104
0.000201812914773745738
9.36924831289915217e-05
2.78783102835760642e-05
0.00010751576681863042
0.00017046922324489376
0.000154563317052689038
8.5440958226136007e-05
4.07752668829162337e-05
1.86467877322223681e-05
5.94944398541432611e-06
2.96963753570311609e-05
1.84497001598626565e-05
1.03900724243496668e-05
5.84109354136236836e-06
3.32039170752829667e-06
1.7781444691797275e-06
8.04159028022775647e-07
8.76720900559163139e-06
3.45470722279367271e-06
1.36676378129080229e-06
5.94500259207295931e-07
3.73302571578490095e-07
3.21145478760419906e-07
3.05516296758261945e-07
1.38421206382463173e-06
4.13830892392836358e-07
3.23334218864306462e-07
3.27211749537901201e-07
2.99445285103354795e-07
3.01167637857772684e-07
2.96853433523702869e-07
1.32823691453211617e-06
3.18182190588056658e-07
3.12906041289730001e-07
3.04579532173448301e-07
2.98709523464797812e-07
3.00115770893871194e-07
2.96199334522648801e-07
0.000169453211292223022
0.000403428597856938869
0.000559304110395404783
0.000441530393013282057
0.0001387616162727181
5.28016340651090094e-05
1.41200890985029052e-05
0.000197771724338077461
0.000347610624587369279
0.000509711540219331548
0.000640131243108837803
0.000557045742294144707
0.000238163083978554799
6.41956708184097767e-05
7.34640941235834932e-05
0.000327871751809964305
0.000398911296608309585
0.000416525630024169066
0.000466874612699137888
0.000316467378174524483
0.000120514544421516703
0.000130756721408274257
0.000386210687495555606
0.000383701608877170814
0.000269562965537447404
0.000246524563498801467
0.000211717019344496158
0.0001013010518649198
0.000193495760856454328
0.000413012616046266499
0.000489514727138606843
0.000302996341291626996
0.000158499605086099242
0.000122599356454980072
7.6788547657626494e-05
0.000136445189378838958
0.000395338621824502766
0.000553118997925456692
0.000514639513000488664
0.000315000734927388599
0.000159703897639848274
8.41687120976367548e-05
0.000178336393058913672
0.000368212127234046626
0.000321573272268043091
0.000211950632781914813
0.000180782780118119265
0.000160217485711058085
0.000142960086574818115
2.95423693844077633e-07
2.95359407198448211e-07
2.95278450794727892e-07
2.95143478602130309e-07
2.94730114064759305e-07
2.94774648565346328e-07
2.95056132269647163e-07
2.95252588796532014e-07
2.95084747595457684e-07
2.94922079412868761e-07
2.9486702210072613e-07
2.94619118991467368e-07
2.94929261734449749e-07
2.95101394152133804e-07
2.95162575619083438e-07
2.95084973122386685e-07
2.95140194673048671e-07
2.95033829809351133e-07
2.94440635755764785e-07
2.94728411709020098e-07
2.95174797975838865e-07
2.93968823417135136e-07
2.94454986190619816e-07
2.94797931404936308e-07
2.94826361541573737e-07
2.94474140189154579e-07
2.95335988917537959e-07
2.95795235110624688e-07
2.93820337507289963e-07
2.94449758061935647e-07
2.95507368955223842e-07
2.96194607067902228e-07
2.96882135513210762e-07
2.97970462877892418e-07
2.97881268302129729e-07
3.01507764056888685e-07
3.10435766206917827e-07
3.24105098753514648e-07
3.40618669172742236e-07
3.47349563271716364e-07
3.2841372415390808e-07
3.15608066729326368e-07
5.24020800896819155e-07
6.82586259875185101e-07
8.84854383429617126e-07
1.04427975160352646e-06
9.32941173766664299e-07
6.02452745090286145e-07
4.94778505718315985e-07
1.88591919685509584e-06
7.99698632336113619e-06
1.41705458950985661e-05
2.28648736004660996e-05
3.45912236459120599e-05
0.000104033684117503584
0.000129760108730144819
2.70309616084293675e-06
1.25582187156797115e-05
3.61625596963601443e-05
0.000149876223850454055
0.000228841601717026519
0.000158045378361346454
5.41024333188374815e-05
7.31869881810142083e-06
5.8529468323214764e-05
0.000147524525723105571
0.00021478354128552532
0.000203319645658295067
6.84843958872551783e-05
1.57470095550483522e-05
1.06541363040201117e-05
8.15401205850424483e-05
0.000103805473546889337
0.000116883865894290337
7.19565121239720547e-05
1.78367263140617438e-05
4.20903628128979756e-06
1.10295244439536023e-05
7.72089476850783306e-05
6.42856800760973777e-05
3.80200492299857888e-05
1.72933793005676003e-05
4.79431683429894743e-06
1.35104366307537106e-06
8.13459442766810932e-06
7.45132830400206843e-05
9.89781800758942053e-05
5.74169651817235939e-05
2.39170148087771919e-05
6.6454295480265697e-06
9.09485154243746512e-07
4.21488521420981178e-06
3.88248615986684078e-05
9.66630034212672361e-05
0.000116141029308483102
8.60985091834476314e-05
2.31161162649316221e-05
9.30202873931137228e-07
1.96807350586130454e-05
6.03980237682812242e-06
1.24734171358904314e-06
3.32512166807413484e-07
2.95260349997129151e-07
2.94671432501578061e-07
2.94734721827155961e-07
8.1216766244357091e-06
1.58301498860019259e-06
4.15371053039731564e-07
2.96559445016274046e-07
2.94670803688248765e-07
2.94769267087587627e-07
2.9486831348230391e-07
2.87023115841927857e-06
5.91867168920397345e-07
3.09143576987342713e-07
2.94868729398272445e-07
2.95203599750778216e-07
2.95266775470293151e-07
2.9519926160007786e-07
9.62204161353201125e-07
3.57496617520996442e-07
2.96078711770233023e-07
2.94575360028869515e-07
2.95265062290930516e-07
2.95528755863584696e-07
2.95549646720352456e-07
4.58137882805818486e-07
3.0587950784353549e-07
2.94930137936330101e-07
2.94530188413471429e-07
2.94890142235368328e-07
2.95360964811343765e-07
2.95646477861872073e-07
3.42480855221501774e-07
2.96941173781951678e-07
2.94902790730822128e-07
2.94400448110714379e-07
2.94673523093912712e-07
2.95146146325552284e-07
2.95651970677364972e-07
3.24217505366404407e-07
2.95036786008934624e-07
2.94551906282130508e-07
2.94160641564600482e-07
2.943790026367522e-07
2.95017360250729809e-07
2.95652937833846964e-07
2.94951377392591615e-07
2.9468444481683968e-07
2.94351400814323958e-07
2.94273648968079248e-07
2.94412330696530527e-07
2.94486675133077605e-07
2.94536984401212833e-07
2.95064021405269502e-07
2.9505600701667672e-07
2.94934352715233369e-07
2.94933508161664207e-07
2.94639471067438523e-07
2.94753326796446244e-07
2.94679694568971397e-07
2.95103303119244193e-07
2.95308133010373367e-07
2.95300876958663795e-07
2.95210233914842864e-07
2.94902667190633143e-07
2.94884197549248491e-07
2.94711833513836975e-07
2.95463793713024574e-07
2.95391271753785477e-07
2.95457948325615924e-07
2.95434355666425632e-07
2.95328390013401723e-07
2.95343321451877492e-07
2.95199760671969051e-07
2.95705937763627543e-07
2.95674927912847863e-07
2.95622775525625241e-07
2.95564608801614797e-07
2.95559648867848545e-07
2.9561606978385279e-07
2.95638502192575519e-07
2.95802440660345773e-07
2.95852770922348346e-07
2.95811859861136119e-07
2.95829243110293566e-07
2.9583638019766454e-07
2.95851574893129894e-07
2.95820963616778274e-07
2.95853614562436467e-07
2.96088892434542094e-07
2.96076603784616467e-07
2.96110081428326031e-07
2.96086867697019935e-07
2.96120631513932893e-07
2.96022424889759597e-07
2.99851764062471825e-07
2.99513904757255489e-07
2.98345151100304908e-07
2.96127467959482515e-07
2.92759168343328376e-07
2.91589657790356178e-07
9.77814592488220871e-07
2.99453390698683981e-07
2.98248351359307155e-07
2.93889699113330957e-07
2.87055874965160261e-07
2.76980362695500155e-07
2.7381018523672821e-07
5.68077636289329715e-07
2.98020972129710493e-07
2.93743283699147168e-07
2.78761458790097442e-07
2.5822886669708643e-07
2.25432242893879594e-07
1.98531092074546399e-07
3.13987085140442386e-07
2.93449545278169975e-07
2.78329784655675488e-07
2.28686732700254653e-07
1.68736702284768918e-07
1.24769502431628923e-07
1.0283497706918846e-07
1.71278367549780937e-07
2.80661733375266102e-07
2.30508062816268924e-07
1.26585864931238454e-07
8.40475912456017803e-08
5.69390724552431326e-08
4.55367585547639592e-08
9.1052448345702916e-08
2.55643766681625975e-07
1.36608061613131401e-07
6.14795148188098384e-08
3.71038513141549726e-08
2.24998760038877189e-08
1.8072237284632833e-08
2.66207494454083545e-08
1.79758812115630792e-07
5.304012946849415e-08
2.04055404919883405e-08
1.12966951217203209e-08
6.19456101214281459e-09
5.11449261455053565e-09
5.94485703387669846e-09
3.02479974594903695e-07
2.93152578170066569e-07
2.94581372119630892e-07
2.95195500901612817e-07
2.96153381317122515e-07
2.9649814502442026e-07
2.97055936730653601e-07
2.95144192111152369e-07
2.95868388334174923e-07
2.97138491271962643e-07
2.97604849412562411e-07
2.98250615937306669e-07
2.98476779075656002e-07
2.98825854582060268e-07
2.97509658190696867e-07
2.98216085383106774e-07
2.98760125177629678e-07
2.99010624009295038e-07
2.9935257208031445e-07
2.99429597984275203e-07
2.99513184603497392e-07
2.98864446662457214e-07
2.99276471103921335e-07
2.99515616577471068e-07
2.99619830582585235e-07
2.99770054962466731e-07
2.99805134044319371e-07
2.99836472946347326e-07
2.99607738975202976e-07
2.99775341572099753e-07
2.99839864483376239e-07
2.99884437748896197e-07
2.9993690921696133e-07
2.99950918216230601e-07
2.99963765385845312e-07
2.998697007733996e-07
2.99930054974087992e-07
2.9995958013182999e-07
2.99986534528256282e-07
2.99999163537438244e-07
3.00007649305797363e-07
3.00013278939533846e-07
2.99972767697754703e-07
3.00015686744345744e-07
3.00035391018599191e-07
3.00035414564173249e-07
3.00031482481196661e-07
3.00036521645721391e-07
3.00033486642287151e-07
2.97216558033662272e-07
2.97575193386722078e-07
2.97581343685927277e-07
2.97434207133867097e-07
2.97587203363620205e-07
2.97583262866243624e-07
2.97202183091631672e-07
2.98955669260862574e-07
2.99108405615889588e-07
2.99234456946553897e-07
2.99049611935185293e-07
2.99237964218271071e-07
2.99116736748713399e-07
2.98946764497692817e-07
2.99653297110172313e-07
2.99695731732813879e-07
2.99781060246409755e-07
2.99706795567410003e-07
2.99782945781846341e-07
2.99700462449443621e-07
2.99658092554959773e-07
2.99893410728859995e-07
2.99906661067326944e-07
2.99941952803646343e-07
2.99916903631278982e-07
2.9994154380120244e-07
2.99908200235353424e-07
2.99894393297508009e-07
2.99982111844344145e-07
2.99985849085717728e-07
2.99991339261645951e-07
2.99978315791616233e-07
2.99990101495349497e-07
2.99984951115676249e-07
2.99982040705264678e-07
3.00014465201005413e-07
3.00009158441901973e-07
3.00004350208465969e-07
2.99996094081136232e-07
3.00002995789754883e-07
3.00007864182295233e-07
3.00013595607313427e-07
3.00025741382379024e-07
3.00013925713366114e-07
3.00005306218755699e-07
3.00000685043441868e-07
3.00004351699516171e-07
3.00013338865624139e-07
3.00024893311773423e-07
2.97024273561792893e-07
2.96610015645811809e-07
2.96057863461166608e-07
2.95005280805759331e-07
2.94522178256445292e-07
2.93018274195663392e-07
2.97227804200233133e-07
2.98812356248991936e-07
2.9846153754551241e-07
2.98247299816196775e-07
2.97620257494226804e-07
2.97147615515235492e-07
2.95762297681012283e-07
2.95251194549996429e-07
2.99516684096892271e-07
2.99432381059684889e-07
2.99350765257522487e-07
2.9900400190976508e-07
2.98759280071221063e-07
2.98231368110606386e-07
2.97519994310058116e-07
2.99836588262479233e-07
2.99805292857700431e-07
2.99765892160987205e-07
2.99615109652984553e-07
2.99515062163529404e-07
2.99283396164540545e-07
2.98861593548971396e-07
2.9996392887291727e-07
2.99952588138877564e-07
2.9993268850573232e-07
2.99885149041870532e-07
2.99843614837002486e-07
2.9977471259033319e-07
2.99607406640360013e-07
3.00012796999425797e-07
3.00007857570005375e-07
2.99995890225129664e-07
2.99988256867806749e-07
2.99959137145621627e-07
2.99923787422540243e-07
2.99862078706753657e-07
3.00032664554462364e-07
3.00035423503156945e-07
3.00030904602050602e-07
3.00034013407807473e-07
3.00033615406724633e-07
3.00013592436935068e-07
2.99969997311421345e-07
1.04856858214416349e-06
6.10485457315349089e-07
3.34539229069869881e-07
1.79325655793615416e-07
9.42663174526359083e-08
2.72784029165541957e-08
6.03336161545405453e-09
2.91857236224538111e-07
2.73957069634127254e-07
1.98886918632984935e-07
1.03014480365297311e-07
4.56595027754865425e-08
1.81253468488432019e-08
5.12385407955620873e-09
2.92802332063257761e-07
2.77169852922853281e-07
2.26199286056388311e-07
1.25534585761577403e-07
5.74147845545978982e-08
2.27596090982388393e-08
6.28447705289101287e-09
2.96154995509351116e-07
2.8721209955465563e-07
2.58854886175616672e-07
1.70343487316256558e-07
8.53320306171401344e-08
3.79509998107516838e-08
1.16397743836213321e-08
2.98389871931013163e-07
2.94121850371071506e-07
2.79688500757610829e-07
2.32241806620622371e-07
1.30785990607177709e-07
6.47413516833858112e-08
2.20320871169183992e-08
2.995197981785973e-07
2.98306961712358113e-07
2.94003843432805808e-07
2.7933769016281794e-07
2.35666302642700911e-07
1.45450007993295706e-07
6.10883326361305817e-08
2.99854900397218551e-07
2.99473612949061395e-07
2.9812503796411035e-07
2.93915355014925527e-07
2.82569100166776962e-07
2.60630870852153954e-07
2.03779992936334479e-07
1.93805123475165997e-05
5.78625066444494394e-05
7.15664977064123779e-05
7.58960177036393152e-05
6.45773915641000072e-05
4.95831061894088382e-05
1.95648288313643075e-05
1.33211196734781754e-05
4.12344738951728984e-05
3.27025684083023118e-05
2.09461238567826612e-05
3.708205818942208e-05
4.27222207934581171e-05
1.28075060944965816e-05
3.74240876123390377e-06
1.38068478520396488e-05
1.09716309210140624e-05
3.15723497057245709e-06
1.1690029500151445e-05
1.51557140032048554e-05
3.51929419839268388e-06
1.0358840005331275e-06
3.93206783672556823e-06
3.3152744085033567e-06
6.41383084197439099e-07
3.37408116632963567e-06
4.16913161775779067e-06
9.86870550631181138e-07
2.79411227160822323e-07
1.07583855556066607e-06
9.51200063038066625e-07
1.47886305761269246e-07
9.54807688864157931e-07
1.11274835252747538e-06
2.67041640675681207e-07
6.58344546004634942e-08
2.8199864715060979e-07
2.78092143749986016e-07
4.0882799832068934e-08
2.80123015699763168e-07
2.8380635382591822e-07
6.23946974008767486e-08
1.22284536878240083e-08
6.25721659205601078e-08
6.26007700158378009e-08
8.6520814929885324e-09
6.3427962499455861e-08
6.18362301129131306e-08
1.16517457198068934e-08
)
;

boundaryField
{
    far
    {
        type            cyclic;
    }
    wall
    {
        type            fixedValue;
        value           uniform 1.00000000000000004e-10;
    }
    near
    {
        type            cyclic;
    }
    inflow
    {
        type            fixedValue;
        value           uniform 2.99999999999999986e-07;
    }
    outflow
    {
        type            zeroGradient;
    }
}


// ************************************************************************* //
