/*--------------------------------*- C++ -*----------------------------------*\
| =========                 |                                                 |
| \\      /  F ield         | OpenFOAM: The Open Source CFD Toolbox           |
|  \\    /   O peration     | Version:  4.0                                   |
|   \\  /    A nd           | Web:      www.OpenFOAM.org                      |
|    \\/     M anipulation  |                                                 |
\*---------------------------------------------------------------------------*/
FoamFile
{
    version     2.0;
    format      ascii;
    class       volScalarField;
    location    "0";
    object      p;
}
// * * * * * * * * * * * * * * * * * * * * * * * * * * * * * * * * * * * * * //

dimensions      [ 0 2 -2 0 0 0 0 ];

internalField   nonuniform List<scalar> 
686
(
-0.235986619226226962
-0.293537082933850724
-0.365176235055183096
-0.447418047430538979
-0.533839911637979503
-0.60927845441614259
-0.750206310239554752
-0.439659037792451746
-0.526771432821074304
-0.626101629514225988
-0.734465793770440856
-0.860243001434216725
-0.95748858772113965
-1.11924747735537844
-0.592444193890769522
-0.69727941752008904
-0.813757699700488835
-0.931833432995176181
-1.0752915708682349
-1.16504156498645517
-1.38406184278703481
-0.691198814780637716
-0.806388500384543794
-0.922189013724429518
-1.02660762899489333
-1.15188358163978011
-1.21731894279246089
-1.3792925167141008
-0.736150608475287571
-0.846368139976779621
-0.954790586447593292
-1.05147822351974352
-1.12787550257238833
-1.17741019905491218
-1.2801967913138157
-0.762550217873262604
-0.880956060486710268
-1.00250418962848165
-1.11750130209029597
-1.21030720110693535
-1.25712010412157604
-1.25961506181824601
-0.808834759521946278
-0.934277348888535752
-1.05047701681259431
-1.14352947202218136
-1.18971389182809739
-1.18087731189822542
-1.21984899467981411
0.266849251502362217
0.267949347393324377
0.26182801328528732
0.249104696876811443
0.230373653810650197
0.204272512691558078
0.160663781693669017
0.386220026807257699
0.406300962592866521
0.421150262847310997
0.428007765167589427
0.42785520522841064
0.42453154751242711
0.415312149409499287
0.456794727843459814
0.48867366970754228
0.517312827980142553
0.538455984516728159
0.552893039490292115
0.560561211608761267
0.56254887061315173
0.454223966195685114
0.488023741433902425
0.519198194410176783
0.543119189381798373
0.559360619134210646
0.569549662733080719
0.573205299880779617
0.367015069266473537
0.391019525463639883
0.411497862462780528
0.424113057677744376
0.429234462528082505
0.42656056425795319
0.420441879657881212
0.205095218413174935
0.209010001464134204
0.205785519446356063
0.193240454064286499
0.173536884059624114
0.149914410958738697
0.109850136622388433
-0.0110642500694450637
-0.0362430286120949616
-0.0708854433830159725
-0.114194290764326536
-0.165278943707424186
-0.219250680356710331
-0.297168460099226595
-0.148344042096466622
-0.168051663460669715
-0.192165621782326129
-0.205114655223080394
-0.183523570300417077
-0.110276976633070789
0.00469080524093557112
-0.414597922215435788
-0.412461579170199044
-0.419376625207728948
-0.414978516083582605
-0.366418652826687619
-0.264323429871312909
-0.139189541940904049
-0.303360334394543796
-0.29179520039965634
-0.298211012671057041
-0.295986277656750063
-0.2668492425679444
-0.208852716899963431
-0.142320869417902424
-0.232142540005643799
-0.211393010006853788
-0.208378283619931104
-0.203261169547200055
-0.184357894553129398
-0.148065025291723551
-0.103636705148502734
-0.285359665561105591
-0.218057084921516792
-0.203680780358335478
-0.175451337968550697
-0.141804074864851054
-0.100635230688691471
-0.05934303683851197
-0.265008832095444791
-0.182775748224762086
-0.146281787479137615
-0.083572069797650736
-0.0483043243783073811
-0.0111934746740840561
0.0219126903829288469
-0.085059769727797635
-0.0152574710440404344
0.00991670322203961133
0.0516845697428698556
0.0894359676286996946
0.117653947013678761
0.1371932221903292
-1.19917818220785022
-1.16509445540381051
-1.1659369232082557
-1.16985013279876116
-1.14549335237653471
-1.05844151479718018
-0.917189053509120611
-1.2923515166888655
-1.22761514443637298
-1.22067045823537179
-1.224662065405836
-1.2373918411954794
-1.20055021763356229
-1.05847310542881035
-1.29217324010281809
-1.22042173149343203
-1.21054655558580571
-1.20745953255836214
-1.21612326501120394
-1.19907600864927244
-1.09220930308668085
-1.12002768841384537
-1.04732522789635163
-1.03354640028692324
-1.02063216990760441
-1.02600680983921233
-1.02073143298318159
-0.964209090571313876
-0.864294531933960997
-0.801904362626946088
-0.774926255663951125
-0.752275126315696152
-0.733470566067133123
-0.721008764935436197
-0.69174877552431191
-0.562969696513690332
-0.546582820270026248
-0.536618794806185684
-0.527695154045454418
-0.513470167010654399
-0.496869845162889345
-0.456367524483869302
-0.182654322324834889
-0.188244132647256229
-0.201263752698882858
-0.210176418268782417
-0.199886788701053086
-0.161372694940456751
-0.0905942041064573683
0.0386897783336264539
0.0387594529255371745
0.0373596071697323492
0.0331142822525718264
0.0212021865665667913
-0.00409885213812396371
-0.0734966714659425757
0.0192181726440055489
0.0170100533910999448
0.010284691116129804
-0.00372674841281176459
-0.0318379888656599649
-0.0861538930104512463
-0.194983019294774906
0.0074298708281587281
0.00225159481802615635
-0.00918671893957937781
-0.0306529370919875893
-0.0691818119681427562
-0.148840912034204964
-0.290952253248213055
0.00770882645662119854
4.7041749058926945e-05
-0.0160337835943182502
-0.0439308824993384431
-0.0885628991193042475
-0.184595866228631028
-0.347632398010821519
0.016176521291102617
0.0113370070050176977
-0.00346439495198484814
-0.0335058250210894457
-0.0886492836434449039
-0.200205934710257299
-0.391230023959607709
0.0393947622322333157
0.0366453546314973247
0.0265769347535446294
0.000405181013895730224
-0.0566583482815984779
-0.174529480424228584
-0.39582495848189142
0.0680761845044426939
0.0771089781781851974
0.0754831052549828074
0.0437547986153799806
-0.0280234229500700982
-0.148991061944545283
-0.386013855683791707
-0.404714470297867668
-0.440218478900051891
-0.530294227161865361
-0.613406320205759359
-0.491815138274429409
-0.101576745204568025
0.223569635355424179
-0.148186886219871222
-0.234425211556563762
-0.383065127328098998
-0.418842964034749354
-0.33274813113471774
-0.181769986776254888
-0.0301063488061516539
0.0216786316155421765
-0.0978542199153871889
-0.399934000050043648
-0.554281566671042336
-0.509912489331939334
-0.290812075504776502
-0.110387206314144032
0.103706286600613706
-0.0131360894277847678
-0.306858572717481404
-0.415554931722106446
-0.304006597714314541
-0.115148956966947547
-0.0174726898550732583
0.139475962472006443
0.0717547371902631514
-0.154906565077295
-0.253981732619040668
-0.102086876355447193
0.0589184635583440489
0.060909056097100657
0.139245473909692219
0.0946409439004918529
-0.0814983510840234238
-0.193968422631471127
-0.0582488966414509909
0.121753415650168284
0.0891347120536583881
0.106719785077121321
0.0556239180199123232
-0.0821700324305128793
-0.183176493330831081
-0.0532404046511475229
0.13177583811379337
0.09399664067479295
0.250673811687647019
0.136491448815240307
0.0646285152426212678
0.0413699133854922574
0.0633955360380264316
0.112431981764527039
0.182158778537105381
0.0341374572152969361
0.0450511679001373566
0.0641292602626893221
0.070570597576187763
0.0940304155261416225
0.130348642571519791
0.176277293257648709
-0.0187836939470853899
0.0203410857524787582
0.0566853086671037093
0.0780418937512455113
0.101168898396448131
0.129816045882197528
0.160759796076945682
0.0261713349385761899
0.0429931377956835059
0.0608926288438251251
0.0812654160868872683
0.100572070175894784
0.123653854666054538
0.146025972115321839
0.057929083065390477
0.0621903088489602976
0.0660361496933554171
0.0831984993692039959
0.0984218862498740521
0.115874031446207879
0.132812736494404393
0.0588593476003615654
0.0701053661390803745
0.0685134974207092379
0.0819566916822070252
0.0950070997720448285
0.10859056735376324
0.122302277853956171
0.0558954628476189541
0.0698799672299579427
0.0688006273856694023
0.078834298796036692
0.0898816025649057659
0.101965460904011193
0.114680298895494429
0.254720579733961283
0.318329377156278848
0.354034477610173426
0.345815992079664902
0.288848764486705156
0.187972639240070155
0.0588338992765795044
0.220551497394765844
0.253046975574125366
0.266291201512925568
0.25594103461318396
0.218874105297051758
0.157960391357421237
0.0804944857536411956
0.18862713312714191
0.206864105447916113
0.211122083451578596
0.200115724651312832
0.17299595141514218
0.131676662450846416
0.0792946099148610084
0.164735924488460916
0.175804773623919441
0.176146662418664973
0.165610961697976539
0.144108821345803412
0.113113297122739806
0.0746245834807239966
0.146417458675897311
0.153927465666245933
0.152849687679880053
0.143128390361632163
0.125003067342606994
0.0997430857907067453
0.0690609185350967852
0.13354696309569436
0.139778652168186995
0.138649471320312995
0.129907202481313572
0.113807419363753742
0.0915543442762975362
0.0651180389909623569
0.125237746826149382
0.130981793984003614
0.130066890491311343
0.122059179593666828
0.107225140229365079
0.0866669750907268777
0.0625280027180340481
0.00575805703014252695
0.00473741987743613556
0.00485380028439039504
0.00250080288097721988
0.000154836415064957793
0.000194896532118328931
-0.0140228348495437718
0.00361348374599618129
0.00229620959839224549
0.0015817518071126488
-0.00256731607696280032
-0.00824980491402265738
-0.02268436561846425
-0.0464608059427446055
0.0015315870297213281
0.000554375015689529717
-0.0010852876737904105
-0.00505306598573470721
-0.011244964289584292
-0.020234037004086932
-0.0339963960832036366
0.000340721931288467885
-0.000436712206642695863
-0.00207636285227667979
-0.00375365991771324991
-0.00736888059217604297
-0.00700878592119128386
-0.0114904539321378993
0.000132766901194286766
-0.000579595685232384096
-0.00124031000170943804
-0.00170195859361649922
-0.00264603479799534191
-0.00106666382331344761
-0.00209540369696091912
8.95774567257087121e-05
-0.000120262190220002464
-0.000295074730572951244
-0.000622207581610770884
-0.000858652418808472607
-0.000881916686839909225
-0.000772884302330432982
0.000174908917260177278
-0.000321793829562681203
0.000172475918711902917
-0.00041231988807477124
-0.000375418195676531757
-0.000542414375490082997
-0.000468204122588955377
0.00392695790597073161
0.00780278210073075563
0.013411424512121909
0.0191006587784308644
0.0242393372438818519
0.0300844287418647258
0.0363327401329995789
0.00615653969818266006
0.008552922169143818
0.0110523773174280842
0.0144447303124757703
0.0185259709154498402
0.0228755444346263152
0.0270739110026447516
0.006173440614723095
0.00930295506249346864
0.0122433504166164879
0.015006241616948357
0.0176860735343513861
0.0203695799790380126
0.0229403563628914377
0.00649107783278226463
0.00911149495218351035
0.0116364814419607845
0.0140580894211858615
0.0163479202799748126
0.0185850906037784147
0.0207622548567620406
0.00750480450770609625
0.00937680245549925989
0.0113906145252499862
0.0135901960784283009
0.0157705699779291386
0.0178755958805882527
0.0198947726019641467
0.007226849848850944
0.00935506593925310159
0.0115397962249066399
0.0136795243457233356
0.0157065747507237792
0.0176218524667081065
0.0194264041273687661
0.00785800327665920825
0.00980883388807188457
0.0117051400548294614
0.0136245756880819472
0.0155352474875953793
0.0173567094332681172
0.0190942273552431006
0.0433406108024289582
0.0514382220196274512
0.0584687383252519427
0.0638248900436921285
0.0674356489268507497
0.0691726995908954895
0.0695100300298971407
0.0322079310663192925
0.0373156780124802717
0.0413898926809065301
0.0444864957451855184
0.0464864760353042028
0.0473020113987341201
0.0466571740036484037
0.0264498872556890932
0.0302344894288002104
0.0332569309762447071
0.0354969887632431841
0.0368481941908746849
0.0372478690180592861
0.0365697466236334714
0.0238133830634569416
0.0271239372448209386
0.0297260365019724263
0.0315701979156510285
0.0325928432020599762
0.0327096677030113483
0.0318132804786159518
0.0226637264431957322
0.0256168396040411181
0.0279369777077444967
0.0295677042438487053
0.030432590165247575
0.0304671354610280103
0.029587111288191182
0.0219252407689724572
0.024683907377574317
0.0268620602400002385
0.0283831328413756516
0.0291679271523435923
0.029159897820888344
0.0283026300493884608
0.0215155866055155472
0.0242233987177693511
0.0263495063057998455
0.0278185973532580587
0.0285804786363774467
0.028550814602476781
0.0276728674496179612
0.0690564881919412954
0.0681364521388707761
0.0668398001935501668
0.06500880851820659
0.0630557848502868723
0.0590532245443653112
0.0533725121977392872
0.0445189166503708669
0.042301282306083321
0.0394252505186925908
0.0360608615009313516
0.0323696753810625223
0.0285539893828590276
0.0248540069469866329
0.0350447806339381773
0.0337781393003146191
0.0321892318083477555
0.0302891534224029139
0.0279365804190968015
0.0250651442849833261
0.0214997123461380078
0.0302326599318156544
0.0289676455627021628
0.0274788429754198177
0.0257566373780913765
0.0237159260461354549
0.0213844132157390114
0.0186997015086706048
0.0280501235092324615
0.0267662479931318927
0.0252381151728456356
0.0234728558764501008
0.0214799068620936708
0.0193806557736084933
0.0171482372644078847
0.0269261734832836122
0.0257727534033893174
0.0243735686031362857
0.0226972752274197005
0.020759162170935104
0.0186301016569798833
0.0163370760226183402
0.0263287551392384495
0.0252024238198712593
0.023857417781053946
0.0222736581486653422
0.0204808236388915044
0.0184888455341328944
0.0162635056827167418
0.00422866188173635221
-0.0367398662506908183
-0.0298283920182904859
-0.00895988945166855191
-0.000790807422393595611
-0.00023227189166619803
-0.000297875281602784348
0.0121277483295972894
-0.0179173553137068585
-0.0165119160592087713
-0.00427896436460398471
0.000890315341282764991
0.000244546320760234942
-0.000195469112653585606
0.0142857093739898935
0.00241987134861293678
-0.0046035934375537749
-0.00293691704775207686
5.67648664396855427e-05
0.000605252348268638346
7.72936058996315402e-05
0.0138777069887147542
0.00624118161153146972
0.00158838804924363612
0.00101698576408422708
0.00159752993217094946
0.00130228640222106607
0.000245739980835246979
0.0137839721308043658
0.00920095889930884828
0.00514042794843662734
0.00269491320433687008
0.00207369610014622799
0.00160232865354464275
0.000739197873073010729
0.0133354179859149057
0.00985815647589016568
0.00680291515450799893
0.00441965549781827508
0.00288853654729141545
0.00194634817086992442
0.000401727771390296255
0.013659655689874867
0.0106627001545988986
0.00753412501432642809
0.00510296450800414199
0.00355276001594787352
0.0021843442027287825
0.000871569149303911671
0.0213132010597289756
0.00093116419023159475
-0.0277948815827743778
-0.041861062755970728
-0.04568075177714713
-0.0390756951500436239
-0.0253742921732364214
-0.0900879949945181252
-0.10342249083066557
-0.106114225217859917
-0.10442947240278061
-0.0970555526122866691
-0.0977956389547190996
-0.0918420505809971754
-0.0318107191567225181
-0.0300321204547942429
-0.0281313083206997418
-0.0281655367310108054
-0.0283368641751774904
-0.0304045535845286902
-0.0320722829112794969
-0.0033648072568727757
-0.00232631549238593999
-0.00142628003667125266
-0.0016813224652756809
-0.00145541592709024403
-0.00262250448838514472
-0.00387148763393826501
0.00248971593477554038
0.00255744580837740688
0.00363827737953356092
0.00304411054299026174
0.00348359999609614262
0.00226166452002806362
0.00213262932420941022
-0.000157671561512116984
-0.000210583640651682908
0.000580746467016626908
7.39558702462279401e-06
0.000429400984739509474
-0.000397655264910275533
-0.000476048131411411775
-0.000602870539665491148
-0.000585178787807134415
-0.000316602506425481224
-0.000298052450843966311
-0.000374992159730181329
-0.000662033244414063989
-0.000728394014558078748
)
;

boundaryField
{
    far
    {
        type            cyclic;
    }
    wall
    {
        type            zeroGradient;
    }
    near
    {
        type            cyclic;
    }
    inflow
    {
        type            zeroGradient;
    }
    outflow
    {
        type            fixedValue;
        value           uniform 0;
    }
}


// ************************************************************************* //
