/*--------------------------------*- C++ -*----------------------------------*\
| =========                 |                                                 |
| \\      /  F ield         | OpenFOAM: The Open Source CFD Toolbox           |
|  \\    /   O peration     | Version:  4.0                                   |
|   \\  /    A nd           | Web:      www.OpenFOAM.org                      |
|    \\/     M anipulation  |                                                 |
\*---------------------------------------------------------------------------*/
FoamFile
{
    version     2.0;
    format      ascii;
    class       surfaceScalarField;
    location    "0";
    object      phi;
}
// * * * * * * * * * * * * * * * * * * * * * * * * * * * * * * * * * * * * * //

dimensions      [ 0 3 -1 0 0 0 0 ];

internalField   nonuniform List<scalar> 
1330
(
0.082556873519836857
0.151818015127361011
-0.129945000168080749
-0.10442988820848069
0.0630825119814951429
0.132986368798471283
-0.113512007525301675
0.0463427249481046383
0.116769597561058674
-0.100029810703234356
0.0322348642224176835
0.102270643331141844
-0.0881627827872318026
0.0197161350861587148
0.0889399651299486588
-0.076421236203025697
0.00716442105081383646
0.0792277728355839372
-0.0666760590328612651
0.0639044091689957988
-0.05673998813688199
0.052895996249234703
0.16657925266791121
-0.0676572339039735876
0.0402997464767525515
0.145582618128578506
0.0294360377087713142
0.127633305948245485
0.0195224144675037979
0.112184266236808508
0.0117929377668759237
0.0966694415377331723
0.00541923220439911174
0.0856014780756012422
0.0693236413664969353
0.0185095247272529101
0.17615478400097917
-0.028085055927258587
0.0103558270691941033
0.153736315506224713
0.004169555460857826
0.133819577313858906
0.00082490385973663094
0.115528917649058857
0.000475084831199609758
0.097019260364246046
-0.00326621824841333286
0.089342780909186556
0.0660574230953480529
-0.0189716840359313368
0.179195141153090293
0.0159313274803805534
-0.0207017112725490435
0.155466342174594707
-0.020378639472571989
0.133496505359872703
-0.020558944060973406
0.115709221684172081
-0.0215601606466875526
0.0980204763002804902
-0.0210023278995080873
0.088784947434222744
0.0450550951872988187
-0.0651722385272478222
0.178652191051580617
0.0657151891227332474
-0.0646509026526547875
0.154945005702615934
-0.0688317192375262343
0.137677321757301296
-0.0775526386923903743
0.124430140990264892
-0.082297315295911444
0.102765152681426386
-0.055778669766114633
0.0622663016494991034
-0.0107235745758874866
-0.112584014543881464
0.17785627955912614
0.11337992552808418
-0.118695822954481833
0.161056813837637036
-0.124238292542103487
0.143219790938498848
-0.111033673238498082
0.111225521592955998
-0.0694372913939265701
0.061168770930104456
-0.0142714798976890257
0.00710049024440755419
-0.0249950544787150009
-0.156812039348337512
0.187806495718160632
0.146861823146935883
-0.160360375727332249
0.164605149914368004
-0.135672960043658419
0.118532375401076917
-0.0826611611973640803
0.0582137227247737088
-0.0268039551513135701
0.00531156477674508184
0.00253581271636338715
-0.022239277812428529
-0.0224592417650456566
0.0950187279492808318
-0.0756368516958842996
0.102019047015289979
-0.121400923184034878
0.0740775679489851374
-0.0642059532799191257
0.0851471131778307327
0.0579099766011072006
-0.057434962652390481
0.0736025539400358558
0.038998911661625689
-0.0492380732561241291
0.0681491381512164401
0.020715414753474954
-0.0395654299895324343
0.0578489268747666291
0.00867493497125551918
-0.036546341675222617
0.0485868213896578985
-0.0321253108650172634
0.0408002458415954658
0.122048081375052103
-0.0439857452475714977
-0.153699187644502883
0.0946917678843174904
-0.0368496396872211515
0.0692184374327081547
-0.0319616321445282958
0.0464820928748984272
-0.0265017286821916734
0.0307504574685128658
-0.0238337945590377936
0.0159179782582161838
-0.0217138624399490811
-0.0162073326065655977
0.136964132791966647
-0.00724041976903126803
-0.17370945804310145
0.105665710199734822
-0.00555121708796073223
0.0779325691877813254
-0.00422849110586596185
0.0550817393452776444
-0.00365089883157126288
0.0345719054367067333
-0.00332396064353672211
0.0146119672068561329
-0.0017539242019581952
-0.00159536539923869013
0.143165912678629464
0.031205854151507055
-0.181612186263078818
0.110584622479132963
0.0270300731673401677
0.0819113309202257611
0.0244448005045143774
0.0565988159398906066
0.0216616161692258086
0.0344848499909520129
0.0187900053173793886
0.0157532907868794224
0.0169776350134996194
0.0141579253846384392
0.140256064677929726
0.0682063355177213171
-0.177256545796337678
0.108265378022669126
0.059020759728190042
0.0807667367167183292
0.0519434417742907426
0.0561091855980545423
0.0463191672104292726
0.0343750127051891188
0.0405241781228387749
0.0164364973254662698
0.0349161502974598553
0.0305944227090250848
0.128075389057195954
0.102097279480049014
-0.161966332589131012
0.0983564840447059552
0.0887396647228499286
0.0724222493321761418
0.0778776764926055048
0.0505987722245247601
0.0681426442994655102
0.031449851343993758
0.0596730989706211953
0.0138744959791146285
0.0524915056181878698
0.0444689186791832614
0.110148376758173627
-0.137996097225879133
0.08537603370955682
0.063223899363959557
0.0432037606441193489
0.0264556231565212588
0.0122710694577556918
-0.0205416944789803407
0.0168978452473131681
0.00364384836928531271
-0.0398091903072153308
0.0123016487037500254
0.0069658463217687509
-0.0564080900334600482
0.00888293372482876209
0.00771596541447090029
-0.0633726709535096661
-0.00706092776166932987
0.0140255081648888429
-0.0580233606727686008
-0.0295533055877235072
0.0242039944883623674
-0.0341051685997792453
-0.055833336291738124
0.0319151439671271908
-0.075217611106063495
0.0019957099637833986
0.0391167316946341992
0.00431070213592500522
0.0125871432613510557
0.00401160450665108415
0.0126007456192415608
0.0104031876966634365
0.00249135050101266303
0.0331411203854343472
-0.0297988612499165834
0.0724269385186208509
-0.068839124146408831
0.123199315223301006
-0.106605713695308191
-0.139264124723410376
0.187245828915365953
0.00456468486738995007
0.00802245739686094014
0.0274947898347178733
-0.0103293601169855958
0.0693504468140851565
-0.0393643071216584067
0.113542888930923291
-0.0739913038220640223
0.148983336164895869
-0.104279571949947802
0.171285728176203689
-0.128908105791877947
-0.145091283861632142
0.177112886990555496
0.0228822798211907319
-0.0148598224537590598
0.0623441889570025068
-0.0497912697938458215
0.0937697671194041849
-0.0707898853152768431
0.106961676200935663
-0.0871832135335163239
0.102057379242921006
-0.0993752752981052062
0.0883450386931559917
-0.115195765667534672
-0.134748927137050362
0.078002682125017056
0.0295813487619841949
-0.0444411719235041011
0.0405623925541662295
-0.0607723140098664003
0.0378303470460143523
-0.0680578402679493238
0.0328036422645278797
-0.0821565090998635922
0.0273407972788177363
-0.0939124308158585247
0.0250263449932866568
-0.112881313397496394
-0.133806622207677056
0.0240840399087278202
0.00391473724548499838
-0.0483559090850897919
0.000281598806612083641
-0.0571391759021918286
-0.00330675775939163683
-0.0644694836797474885
-0.0107890627559485194
-0.074674204606663741
-0.017223924731683965
-0.0874775690316882959
-0.0256046488799208105
-0.10450058948931476
-0.121719553379053089
-0.0376917175579921937
-0.00755566372545850642
-0.0161080183381316633
-0.0227285755390880945
-0.0292536421393719756
-0.0431286575064986494
-0.0624821337713783523
-0.0821826401909735993
0.00677872983781125336
-0.0292379723538435873
0.0171836339562406633
-0.0326441820410034375
0.0474577330675029496
-0.0249625345969586437
0.102877627371105118
0.00279382873449930593
0.160988146175479407
0.0604218565238958671
0.195064240765689956
0.130529056109517483
0.183556241935654563
0.199314493627261863
0.00921137031682385532
-0.0384493427195247567
0.0192713845513502215
-0.0427041970690227174
0.0314139093700270267
-0.037105059184890106
0.0593215569547467306
-0.0251138189302788188
0.107154289189996726
0.0125891244567940281
0.160415505399546382
0.077267839079711631
0.153763780846420339
0.190207966250690225
0.00756247111329847593
-0.0460118143109402716
0.0140521605750765898
-0.0491938865897028482
0.0201826104585438176
-0.0432355097717150721
0.0284763188014256728
-0.0334075267120885339
0.0500081662326740187
-0.00894272328711525136
0.0898582961349574522
0.0374177084837964968
0.108607461802936164
0.135014614299498958
0.000553579026423573622
-0.0465653934609031109
9.68825938466120334e-05
-0.0487371905899220415
0.00039964166059808107
-0.0435382692900074392
-0.000486767956510813409
-0.0325211171815334502
0.00665982495969473856
-0.016089316567266719
0.0329075019472001851
0.0111700302049593907
0.0591672242678952173
0.0823477384493840753
-0.00723661319467162195
-0.0393287807670264153
-0.0133923414471076706
-0.0425814628679527726
-0.0158739405962528349
-0.0410566710335740839
-0.0149605411875051407
-0.0334345169870975956
-0.00667101238862550898
-0.0243788461288891971
0.0092202357103038958
-0.00472121948487393139
0.0295720160549230449
0.0388154432881394895
-0.0121341352971073291
-0.0271946461769622498
-0.0246087658965485484
-0.0301068332215993426
-0.0336793465194750452
-0.0319860910928682074
-0.0354761954299940424
-0.0316376685930270657
-0.0304286870876546642
-0.0294263551389141002
-0.0173018570057832735
-0.0178480503880191939
0.0148442721446213639
-0.00257411422705488765
-0.0235507976732692269
-0.0466917851852667112
-0.0709619109994715502
-0.0885740721123498137
-0.0937964331901790793
-0.0797293407908214874
-0.0628893587504746332
0.746484189831305267
0.661987787911143211
-0.556742856517480567
-0.851729131001156881
0.642630002313331228
0.6547755635938729
-0.550921383449111235
0.540604252001532948
0.649956514949736941
-0.547930770083179697
0.439212497755554099
0.652294860846209801
-0.550903109593696816
0.336416290952632369
0.660996761028395885
-0.558200557025928967
0.223293143033041874
0.693444248649675021
-0.580321101328333144
0.764490270185918752
-0.645627014431204183
0.514668851272337413
0.732153472379074244
-0.584834545121918903
0.442638717706942908
0.726805690414577543
0.370827404532667382
0.72176782361243319
0.297420756784642248
0.725701505262728697
0.225844778554852577
0.732572737629021309
0.15250526202832404
0.766783764568555237
0.84933829903129987
0.238168709212094987
0.759815865424120163
-0.265831113046317791
0.210599161802084794
0.754375230092290794
0.182635908124007512
0.749731071968007701
0.152925316871342254
0.755412093235633075
0.120771441187095277
0.764726610861796163
0.0764710575105505413
0.811084148258831572
0.897724301444932427
-0.0336831926364133602
0.759090132387077898
0.0344089133071820846
-0.0267444474264431145
0.747436475748535334
-0.0143999816416189585
0.737386600482421661
-0.00206591412653458128
0.743078021092814955
0.00850537677994133746
0.754155318342025205
0.0105177064791874102
0.809071817784371539
0.924173336295643577
-0.31597757427112122
0.717456694973867215
0.357610996844818785
-0.272077375326827353
0.703536266559715684
-0.220465812382875576
0.685775029902992772
-0.162422308342352079
0.685034512989916577
-0.116103340571728775
0.707836346920532766
-0.0745636374659170015
0.767532114881017913
0.915324888435828043
-0.597393683432456468
0.626421900654414165
0.688428459931641368
-0.489643363373996943
0.595785934651944071
-0.379411896357253364
0.575543555878483493
-0.26970379150243301
0.575326401913876295
-0.182834352104306874
0.620966906574517807
-0.138270423531283743
0.722968184507056244
0.890434391173775652
-0.867710797331972761
0.52759942262961379
0.966533259701778502
-0.740876434406970819
0.468951562232607644
-0.578854708293398579
0.413521823955091683
-0.403904319359830677
0.400376011057682113
-0.261193964916609012
0.478256549209155946
-0.178670264181280458
0.640444484981847029
0.85862594823585614
0.872325492791670376
0.185614949225285569
0.904591405632477197
0.157942051038476305
0.870726240566940035
0.168879777222787436
0.780116433090283445
0.17295754458173962
0.582024546519578023
0.236907327195344686
0.289286565228464521
0.290163866951009097
0.384158357263837069
-0.15776115288898715
0.619027019798862987
0.207032411861214238
0.680619253498779608
0.096349816517063161
0.665492764987250851
0.184006265034355604
0.502008943960306042
0.33644136376404199
0.181790773967737296
0.557125496488679595
-0.222137591825683323
0.694092230452121761
0.695289527422164766
-0.533268762704799726
0.35376103491274774
0.331527924670840246
0.235696681417360998
0.214414168601029409
0.0121363385916132029
0.407566605996608877
-0.210933947888054613
0.559511647879954555
-0.413258227571706327
0.759449773824742769
-0.583557229041672842
0.864391230181774439
0.789654793382830733
-0.677922497399565449
0.107194143907691705
0.624709789464690135
-0.151007698094106885
0.472616006517038389
-0.357124127011277048
0.613683028829686283
-0.561572733652420331
0.763960248451155288
-0.660691474667729151
0.858568508835768185
-0.668558555409108024
0.872258305398524003
0.79759398357857858
-0.676497749390772674
0.0514592475705764676
0.986772357165306757
-0.375082177996001132
0.899157421889554054
-0.62357032181328742
0.86217116026287921
-0.75958883527734522
0.899978747839495608
-0.715725227106202899
0.814704887271048173
-0.596939381884062037
0.75347244952922876
0.820922678804706929
-0.620268087900342491
0.200682539825170314
1.25504136660240917
-0.297499166627780531
1.39733911549307588
-0.660911611330895155
1.22558358971535286
-0.783984968915523162
1.02305208901885125
-0.638224812162138444
0.668944715433880677
-0.51574950888576343
0.630997133002999977
0.895887597499692379
-0.590714439521518586
0.434502408640883908
1.34813837682740179
0.197430531606150622
1.63441098896340398
-0.0697583598466407911
1.49277247757486542
-0.237208531804250333
1.19050225757011519
-0.314946610075991229
0.746682790695654686
-0.426363474576506807
0.742413994740034777
-0.54605395851413685
1.01557807886339568
-0.555903206947818584
0.437258785945976947
-0.706429848987697007
0.337772469717954049
-0.743059456340376734
0.213742494623784862
-0.756586073177174745
0.0915292982902198154
-0.718589048457844659
-0.0139129845826560915
-0.647937629764705036
-0.108343136617795169
-0.189391649898916853
-0.540728619796120524
-0.658328001439759003
0.562318022533110695
-0.71658475206037453
0.396029219210301042
-0.743758967761068424
0.240916708728117712
-0.747126377030211564
0.0948967067080064147
-0.709938736983542484
-0.051100625675783759
-0.633580857295738209
-0.184701016821467778
-0.300237749442176682
-0.522734758392622179
-0.702640356852628489
0.587035880039882163
-0.741768272628961167
0.435157133098955262
-0.761388991665735482
0.260537426220340373
-0.747430502999609336
0.0809382167648903528
-0.708116607020527034
-0.0904145226770978472
-0.630708378509117096
-0.262109246216558234
-0.409642783978109437
-0.521303344637194854
-0.709602322127533491
0.620140447524899718
-0.745085997202519112
0.47064080437083039
-0.769278224150950263
0.284729650231420772
-0.752068257752386615
0.0637282480086593106
-0.710432819539115079
-0.132049962679638311
-0.633692613955917472
-0.338849453134064671
-0.517876154296693647
-0.525459244953570104
-0.699750897831047824
0.699623248199518599
-0.735142131581340785
0.506032030187454906
-0.766460099544347462
0.316047612269498679
-0.7564464357857692
0.0537145798145292272
-0.713541884150836303
-0.174954517700135453
-0.636294997164684295
-0.416096343052206108
-0.624687579333517373
-0.52948357529681056
-0.688854773349285798
0.797763571423755313
-0.735514177845669415
0.552691426079504278
-0.769525991625871431
0.350059419428463081
-0.762178953634893297
0.0463675367459944685
-0.721066081796974401
-0.216067393572354993
-0.644664222832413536
-0.492498205647958875
-0.733048921112562923
-0.536302885008870245
-0.657388514855447248
0.909098125472108221
-0.732355198167122912
0.627658107894739303
-0.770365863624052571
0.388070083767627971
-0.76914406236113142
0.0451457344932153157
-0.728466569360633254
-0.256744887403005773
-0.654002507129124777
-0.566962268713299355
-0.545684330350516889
-0.841367098863033069
-0.39917498746754515
-0.262954555499935239
-0.233180741829200483
-0.319693432933038313
-0.0480766359485045661
-0.35881356353975663
0.142747363133636257
-0.372436184964248407
0.329725197173869
-0.364234379112241546
0.50161590443815407
-0.333857039574089187
-0.28200720746835628
-0.386062849974526556
-0.399626464236795875
-0.229155077748594865
-0.476601205534194661
-0.0593957895369569902
-0.528572852136917848
0.114795328573082334
-0.546627303414275345
0.285541308396372595
-0.534980359595738086
0.44197764585902799
-0.490293378091863574
-0.420350663793084445
-0.384469193298525858
-0.536460616251742684
-0.230383463444517128
-0.630686936055505742
-0.0643289584081360583
-0.694627357878634499
0.10557845642773131
-0.716534719058327108
0.270851934655751803
-0.700253838838954201
0.423226669385983523
-0.642668114299699833
-0.555324552204587318
-0.389112239844655761
-0.672807622913363268
-0.234766936713085433
-0.78503224099641522
-0.0691262115123193327
-0.860268085042862896
0.100335967827830122
-0.88599690046097046
0.265131147117978361
-0.865049020430338156
0.417776151904494575
-0.795313121662200806
-0.688451512793698872
-0.393987823409662152
-0.808303378621037849
-0.239018252214007826
-0.940001816603009965
-0.0726290676278780328
-1.02665727440080246
0.0975521530530455983
-1.05617812609350081
0.262983126451691751
-1.03047999896520714
0.415887759806552459
-0.94821776079737774
-0.820494528221686004
-0.400009847794787043
-0.944596420519392521
-0.243901288196731431
-1.09611038154551532
-0.0760419897407426937
-1.19451657860221516
0.095953577191277839
-1.22817369899003404
0.263120717348220512
-1.1976471452543529
0.417578257372246076
-1.10267530775363087
-0.953837659723149822
-0.408770112534404095
-1.0815106394715559
-0.250900774327134646
-1.25397972098196608
-0.0800534116009877367
-1.36536394260359684
0.0954563523442283207
-1.40368346423504931
0.265738119923569716
-1.36792891427738228
0.422272486011372128
-1.2592096754479476
-1.08830803018943123
0.233793958691241449
15.3131386426518308
-15.2937134128486747
0.154651455905396834
14.8471425637025352
-14.7680000941237033
0.0773070391123789752
14.2782003873199095
-14.2008559856473191
-0.0249338476512669972
13.8094705729195457
-13.7072297121569218
-0.167874034950348666
13.3087195069832003
-13.165779373012322
-0.469787178011419337
12.9843560369974007
-12.6824430073421297
12.5412433753562524
-12.1466090293882552
-0.864421791866193501
0.253938952022657982
15.3225476827270146
0.132219827045276073
14.968861689810721
0.0707923650594488307
14.3396278717093963
0.0184446394502741536
13.8618183258965981
-0.0382232165449465505
13.3653873997773154
0.0190592182064984114
12.9270736644312993
12.5379181226667598
0.0223845571636533958
0.256932764974373506
15.3394968255543667
0.110061123243237205
15.1157333171716584
0.137622275776651759
14.3120667082766211
0.146569848661774194
13.852870745099013
0.174354997367173081
13.33760225168845
0.309597866632132457
12.7918308195319081
12.3400852442093214
0.507430705463017495
0.220815690917686047
15.4035183681727936
0.119220728960024891
15.2173283125575391
0.211279242149804619
14.2200082305085846
0.217264707737529289
13.846885312396207
0.265727093783052204
13.2891398481057834
0.35774103245207084
12.6998168902995499
12.2940816444507526
0.403744610601809439
0.146045591391276985
15.5537034283397144
0.166053259077013321
15.1973206267342871
0.226875791984344904
14.1591856898568409
0.179594035995786966
13.8941670697994493
0.261115675584249585
13.2076181987256138
0.224908620526057534
12.7360239582442638
12.2794040556942754
0.239586203405930231
0.0736367302544067986
15.7881466131309924
0.244378616847938129
15.0265787542718083
0.205125699525863042
14.19843860417269
0.138045811303285998
13.9612469597305324
0.255128826599160363
13.0905351785973867
0.023036266790726366
12.9681165266869876
12.1367568547402911
0.165683464075504078
0.181397310865386574
0.285299504991409325
0.188436881197869638
0.170116405758155648
0.172437892790772151
0.0243651158071690431
0.0876824147815157273
-11.9201189878454521
0.740043213251784127
-11.5927797766171086
0.361089259033876175
-11.1592232336094561
-0.0759455289137006551
-10.6262638543011541
-0.498550446358534904
-9.9688880796733006
-0.923206867689332467
-9.23002160548842276
-1.32370099986317857
-1.69297535337008642
-8.38877536667077095
-12.5024079076153605
0.560008101334428687
-12.1758568427491607
0.0345381871249032246
-11.7274546965095556
-0.524347679793269794
-11.1514394612722452
-1.07456568484732773
-10.4613551357450749
-1.61329119572364776
-9.66632998640879038
-2.11872615120640484
-2.5805647527842086
-8.77874058841686633
-12.940741160657339
0.334969885005931778
-12.5789885648001594
-0.327214409023910746
-12.0976100956497348
-1.00572614771194146
-11.5000983706750262
-1.67207740841417696
-10.7947063218770847
-2.31868324307064944
-9.98570122708416363
-2.92773124497636372
-3.48509764848858206
-9.08116833070914176
-13.4741396958480681
0.101879864302914624
-13.100851941469756
-0.700502166909036217
-12.6002790526890607
-1.50629903806301302
-11.9779223304055993
-2.29443413267286056
-11.2428710469421418
-3.05373452792924915
-10.4005569255277202
-3.77004536842403848
-4.42733448428512677
-9.45832009100334759
-13.9599627074753521
-0.139013414699366539
-13.5786458295140218
-1.08181904734752288
-13.0647872572748192
-2.02015761003785022
-12.4226246608542983
-2.93659673043465341
-11.6608515391233833
-3.81550764980191914
-10.7889252744883777
-4.64197163423256498
-5.40382277470533978
-9.81243698416062493
-14.5141356450792784
-0.392877864297948409
-14.1169021691535495
-1.47905252611312177
-13.5833726114366904
-2.55368716799580042
-12.9178410092765787
-3.60212833500968044
-12.1296758400195177
-4.60367281802198303
-11.2248800211185049
-5.54676745352002509
-6.41815809526566916
-10.2105447003307539
-15.0578122664050902
-14.658435024693798
-14.107664005777556
-13.4183461028942741
-12.5975520518812925
-11.6550478292935935
-10.600735795532378
-6.32467821881652092
-3.1524051618215827
-3.93655304971694298
-3.64733482911884455
-1.34993496537137081
-3.95454698362313462
1.30524820840048483
-4.05886662354235206
3.89296514881597755
-3.95308086952182958
6.28304782379364024
-3.64406238416730677
-3.14712010194586744
8.34865729682511493
-6.60099276837566773
-5.33015298337949073
-4.09886254590604082
-6.14946505265634258
-1.39301627616039947
-6.66039325354200873
1.38203379717554475
-6.83391669736282115
4.08842203833385565
-6.65946911094659644
6.59198136288933689
-6.14762170981831879
-5.32687449039221139
8.77173574927611632
-6.83244603265291151
-7.57887528181093462
-4.24230270876537485
-8.73960837830450998
-1.44037634638519796
-9.4623196164427128
1.43357968974282413
-9.70787273741563261
4.23577035406525848
-9.46165977596717767
6.82651469675614653
-8.73836605317901061
-7.57685381925378909
9.07649402877068745
-7.11511366237518583
-9.92208171445938447
-4.41611735081768941
-11.4386046913749393
-1.49829309012152101
-12.3801438759332498
1.49317910278324328
-12.6993449346855893
4.41125258929562847
-12.379733259332097
7.11074379116472421
-11.4378572579575817
-9.92109241362427241
9.45498239117556594
-7.38193102070967111
-12.3525876809766615
-4.58353845627273859
-14.2369972599380326
-1.55487679367042109
-15.4088055420944183
1.55194787191915728
-15.8061695998989062
4.58079205123613686
-15.4085774353609377
7.37955494918621557
-14.2366201541815851
-12.3519535073872717
9.81041604154686553
-7.68190804736535515
-14.8812243367425623
-4.76799690100789508
-17.1509084100711178
-1.61677551247416673
-18.5600269327958145
1.61416593539776065
-19.0371110452369443
4.76552331056708844
-18.5599348031253477
7.6796422788250176
-17.1507391216049925
-14.8810224040983172
10.2087111780978255
-7.9744896679322439
-4.95009663089183238
-1.67866497595303477
1.67711919124891584
4.94864298771574163
7.97320529785534049
10.5996533750532382
9.19640843152346221
-1.6891182249535579
9.94921470369310157
-1.31976853299952479
10.6104287407580244
-0.917958916041715423
11.147618755715401
-0.492044266507196348
11.607883911368349
-0.0721950537727915898
11.8759134283824199
0.359628602344690906
0.749498932695215503
12.0355126184579984
9.66059571472856682
-2.57797819299028719
10.4566085456542037
-2.11578136702816266
11.1490791254565771
-1.61042949927042467
11.7288259062211466
-1.07179105109801043
12.1786780297747139
-0.522047182984992086
12.5009383213837815
0.0373683034760706606
0.562149575407338009
12.6882876747529121
9.98247377545109416
-3.48395793838829571
10.7932119442480765
-2.92651953450985181
11.5003377950247927
-2.31755534909218897
12.0999318694597786
-1.67138512546233264
12.5831060968101074
-1.00522141318191327
12.9469714388130352
-0.326497045977565736
0.336016704864399218
13.1731042997868855
10.3977395728787894
-4.42671512183862603
11.2406885205012284
-3.76946848310005844
11.9760652289932317
-3.05293205964202841
12.5979017029298053
-2.29322160041065048
13.0964151156261011
-1.50373482908551215
13.4676688131068403
-0.697750746104336517
0.103330557075520094
13.7003549556597228
10.7871152108906507
-5.40341429333469936
11.6591224643942191
-4.64147573591734908
12.4211520167370733
-3.81496161345610263
13.064158016447788
-2.9362275990924469
13.5805465104245648
-2.02012332567373631
13.9648279004751483
-1.08203213613848281
-0.138522618836734168
14.2066810717704257
11.2232971201732017
-6.41800023607708514
12.128479272414042
-5.54665788516381841
12.9169731144349473
-4.60345545878673157
13.5825365769589474
-3.60179106078764288
14.1154829545413563
-2.5530697054692868
14.5115548752194847
-1.47810405480285567
-0.39189049989431024
14.7649227482574688
11.6541232676346311
12.5967370630797024
13.4177484677361303
14.1074036489640608
14.658792128542359
15.0591178484859416
15.2960063496660705
12.5916185887518957
0.444822727471652968
-1.00092874063886761
12.6591407269774727
-0.0547041742453026128
-0.0128178382712646512
12.4739187840964316
-0.343088821116005305
0.52831084567334563
12.4203250565558037
-0.394103992886557841
0.447697757326677992
12.4223430981130694
-0.262553333752802376
0.260535306111793208
12.3260675086104907
-0.0674186301668527888
0.1636942216220173
-0.0683380450991564331
0.0821326314967397025
13.0172293968139581
0.115881007950110956
12.9860260224097637
-0.023500766652956237
12.896003146007569
-0.25306594253878395
12.8499480048889385
-0.348048855039992722
12.928347729339686
-0.340953060245986317
13.1969455246487062
-0.336016429427175245
-0.256195191936832933
13.35969503562246
-0.0707097377572467739
13.4538889597521365
-0.117694697749241406
13.4553390224536429
-0.254515999230638612
13.4374439674616593
-0.330153794821963664
13.3938539981346292
-0.297363083967110808
13.3165600977473204
-0.25872252158878406
-0.293833717242049319
13.8413065920662337
-0.211661371582428953
13.9360840494166336
-0.212472164022455362
13.967221112377711
-0.285653084012215897
14.0002585663315635
-0.363191272902354589
14.0863339809612267
-0.383438512247006091
14.199573654104146
-0.371962197899562752
-0.362869636918182026
14.3223593296926897
-0.327339623230035404
14.4228539066574868
-0.312966754018590476
14.4396217943815834
-0.302420980214356205
14.3955653244061672
-0.31913478880457391
14.3780092321340991
-0.365882405184631498
14.4460037110578448
-0.439956677432658594
-0.495494080356026823
14.8841119407719074
-0.446528813233313671
15.0465313523606898
-0.475386172334180235
15.2330627420979656
-0.488952353641119997
15.379088863155804
-0.465160906248229034
15.4144037314960638
-0.401197269373728682
15.3121899436905302
-0.337742897944291021
-0.450848556755097163
15.3559159865941073
15.4072257931524685
15.4660372808577993
15.5705507504079232
15.7618148132087779
16.04023172225126
-1.18124483058048613
1.19589419648849105
-1.41478605450598272
0.975955253280826884
-1.32123637081277301
0.653133147064385522
-0.671060025471772126
0.54032594843277193
0.113819261693715507
0.707893207936071578
0.724456306163776764
1.02377393485107349
1.20817289002757389
-0.00469425703735916293
1.18777063701277474
-0.0651927725945603553
1.036453804520308
-0.112141797612088562
0.700082192872026665
0.00210216715785073276
0.426082063142746603
0.00210581651289110322
0.707889667293984393
-0.0329860154218003243
1.05886587462322801
1.19757144800072157
0.462385012002327123
1.25369648214916607
0.261070298524007927
1.23776853604451587
0.0505306755178965492
0.91062182698258376
-0.0751704751538669613
0.551783243498607856
-0.263869054610576581
0.896588278240934455
-0.45210950312528847
1.24710634751319649
1.25289265392014415
0.434270603639625441
1.26712364018386348
0.306343263680329048
1.3656958814512794
0.121613150449807833
1.09535194321833429
-0.0837282171217591659
0.757124618487352907
-0.273703987446836716
1.08656405582065707
-0.396552184866256596
1.36995454936447913
1.26008508028303146
0.289564715441940679
1.23809423197330926
0.205090111113003737
1.45017048726782738
0.0875090168212979136
1.21293303837344935
-0.0525773398699349442
0.897210977471556537
-0.183488924494872252
1.2174756427377651
-0.268406241622017039
1.45487186795195789
1.23126504227712519
0.185238062661408576
1.21655038956940009
0.128626884165276845
1.50678166477878572
0.0673090325982945298
1.27425088922341523
-0.0652183467101396241
1.0297383566015621
-0.129063816665195424
1.28132111247332969
-0.184136471033456484
1.50994452180934635
1.21281203521538528
0.0597288633099421692
0.0478928926339637837
0.0363183495904957424
-0.0435743278014830843
-0.0528399090117484815
-0.0633933965416748485
)
;

boundaryField
{
    far
    {
        type            cyclic;
        value           nonuniform List<scalar> 
686
(
1.53360429292488046e-17
1.16770974055334518e-17
9.14570269575756709e-18
7.13830183992269707e-18
5.61505465509254395e-18
4.37793008744378422e-18
3.89951155528686867e-18
1.60670547276579369e-17
1.2022545499242138e-17
9.28689075361168925e-18
7.24106902771844179e-18
5.78544872775821058e-18
4.67801641096142881e-18
4.03294960252882042e-18
1.57367901839394549e-17
1.22658088736087089e-17
9.57943269355114648e-18
7.5380497520264383e-18
5.62961269907271076e-18
4.29069139886061262e-18
3.80524280799313555e-18
1.59556360248809774e-17
1.23091382965807793e-17