/*--------------------------------*- C++ -*----------------------------------*\
| =========                 |                                                 |
| \\      /  F ield         | OpenFOAM: The Open Source CFD Toolbox           |
|  \\    /   O peration     | Version:  4.0                                   |
|   \\  /    A nd           | Web:      www.OpenFOAM.org                      |
|    \\/     M anipulation  |                                                 |
\*---------------------------------------------------------------------------*/
FoamFile
{
    version     2.0;
    format      ascii;
    class       surfaceScalarField;
    location    "0";
    object      phi_0;
}
// * * * * * * * * * * * * * * * * * * * * * * * * * * * * * * * * * * * * * //

dimensions      [ 0 3 -1 0 0 0 0 ];

internalField   nonuniform List<scalar> 
1330
(
0.0825036693891666728
0.151558713561898012
-0.129621990440371204
-0.10444039278933738
0.0630801699302751678
0.13269445636121055
-0.11327095722736237
0.0464135701998126676
0.116543085483633055
-0.0998764859793840054
0.0322532310448029186
0.102190635264735638
-0.0880302963282440648
0.0196418069319478084
0.0889047413900604655
-0.076293317491295809
0.00716578635666899333
0.0790615610481456288
-0.0665855407085000767
0.0638051334206666265
-0.0566393470766860113
0.0537245841692018944
0.166537161123187422
-0.0687030320034571207
0.0408932733548478256
0.145525766853616928
0.029919669256066074
0.127516689394498173
0.0200646532096458476
0.112045651116404424
0.0122573412216611718
0.0967120531937003813
0.00557931226813216524
0.0857395897960474274
0.0693844456855030045
0.0196193213667277024
0.176067813221352926
-0.0291499736572539588
0.0113161741834027288
0.153828913818921775
0.00489804798074804093
0.133934815518648942
0.00118393606070801849
0.115759762935282479
0.000650686888038765066
0.0972453022718276494
-0.00295685161328371193
0.0893471281886952101
0.0664275940685760818
-0.0171069912559770367
0.179040360060755549
0.0141344441994285114
-0.0189237072471417807
0.155645629557783993
-0.0186754205059756241
0.133686528707673141
-0.0187783088741792711
0.115862651195955055
-0.0196679506214172163
0.0981349439143944097
-0.0197731421946988548
0.0894523196440884655
0.0466544518708928505
-0.062889495120259209
0.178281364630720501
0.0636484902302944106
-0.0619355580603244207
0.154691692281724746
-0.0656473544964490119
0.137398325071264121
-0.0741832047608046441
0.124398501374682474
-0.0797717526620461276
0.103723491733937898
-0.0550644379690548372
0.0647450048537667744
-0.00840998610366029686
-0.106852207854512604
0.177549662551736209
0.10758390942645632
-0.113136533893342175
0.160976018090091905
-0.119517623559203534
0.143779414592229454
-0.108385638707219664
0.113266516362286504
-0.0694893828547863135
0.0648272357368052526
-0.0156241122989430412
0.0108797341237660654
-0.0240340984026976776
-0.150400793506080849
0.187317457514064367
0.140632998161029782
-0.154727113368081898
0.165302337939990718
-0.132495581009039826
0.121547882219133749
-0.0825180435546608165
0.0632889789220170002
-0.0276967308887007893
0.0100059230645266478
0.00228795523247140968
-0.0191049520230133323
-0.021746143191275033
0.0947589443960833167
-0.0760562869226941302
0.102548897981524542
-0.121251555554262119
0.0737278465768240604
-0.0645565988753453723
0.0855876965928922817
0.0575925693190826454
-0.0577084667239350299
0.0738437438737029606
0.0387786468042094282
-0.0495677172007271474
0.0683816396124677234
0.0204948760402301131
-0.0398312796943816744
0.0581150503421741862
0.00851213719552394374
-0.0367686670382945252
0.0487514057568648046
-0.0324140271529874957
0.0409261643386541474
0.122033743101365763
-0.0444328640125903895
-0.153657165996435752
0.094715209874152162
-0.0372380656667302135
0.0693144658949333969
-0.0323077227646729609
0.0465929160359477221
-0.0268461673695738097
0.0308489686952016229
-0.0240873323853579985
0.0160338919704902522
-0.0219535903527707868
-0.0163801351852577888
0.137004382759576271
-0.00771018266164840912
-0.173727064221359501
0.105695316438583625
-0.00592899942516617647
0.077974540345647006
-0.004586946740858318
0.055112125021744493
-0.00398375212579255098
0.0345595848570902225
-0.0035347923030020368
0.0146355404691292466
-0.00202954605733456648
-0.00174459471912346512
0.143245226174883
0.0307567326314084066
-0.18171214152104001
0.110666308073815195
0.0266499185687066147
0.0819480368046648228
0.0241313244463981363
0.0566397540310941278
0.0213245305626385724
0.0345616834542171181
0.0185432781854186664
0.0157746589449778256
0.0167574783502519864
0.0140300642203461459
0.140349948197626639
0.0678874127744484024
-0.177480628521056089
0.10830732613872357
0.0586925404328974137
0.0807450452955538051
0.0516936051416339096
0.0559629427788970735
0.0461066329205194608
0.0343020847436485352
0.040204136061518847
0.0163748058476558614
0.0346847570684160958
0.0304048700639810501
0.128326329752530277
0.10181200051941075
-0.162250917591761856
0.0985465016139391442
0.0884723684043868808
0.0726323752393081556
0.0776077314030632487
0.0507764136889661752
0.0679625943560789314
0.0314863558055139894
0.0594941938293046188
0.0138755496107732246
0.052295563129595185
0.0442804196682905077
0.110583074982961091
-0.138393065053437653
0.0857844859087509709
0.0635157311808301067
0.0434480290326127519
0.0266489051916892206
0.0123589274084364605
-0.0219426324741486684
0.0175717806949558554
0.00437085115623226782
-0.0423206576554785024
0.0122734105555494244
0.00810461386824807596
-0.0590994915294810533
0.00866656716054278395
0.00811226638685325595
-0.0646246260322710653
-0.00707062825460002577
0.0125957619599821047
-0.0564034727366521799
-0.0292703239951339553
0.0210491699773936655
-0.0310931854766525566
-0.0558162169962326329
0.030505929539508727
-0.073748398039742466
-0.00160234372337786802
0.0442575560100723076
0.00445879573664191564
0.0131129850527265824
0.00355401514181914995
0.0131781907844448817
0.00994208388543395272
0.00227849829764960148
0.0330297996661815252
-0.0301583446968031535
0.0726154499076636234
-0.0688559747523577181
0.123177944198657879
-0.106378711623301703
-0.138806558995631796
0.188236105324599473
0.00449412977838180554
0.00861885459842590129
0.0272404275415269632
-0.00956810784839383886
0.0690763121263478774
-0.0395573865891049106
0.113443105643768236
-0.0745251389279821541
0.149296820667625785
-0.104709690231758232
0.17233853920538636
-0.129420430197161984
-0.145478356495972516
0.179010336692021932
0.0228041228535559061
-0.0141852683508203892
0.0628054624635754621
-0.0495694478504560276
0.0943473851780101819
-0.0710993094216267607
0.107366874208816465
-0.0875446284646883427
0.102442773356616432
-0.0997855897319446794
0.0888471368790965249
-0.115824793829176334
-0.135166199415922589
0.0785349798862534504
0.0301941839739204645
-0.0443794527659573043
0.0416193032819492728
-0.0609945677165095665
0.0388594791776394888
-0.068339485535209174
0.0337725186654944387
-0.0824576684432154761
0.0283455091937335792
-0.0943585805733227756
0.0260261746751793283
-0.11350545938910564
-0.134275851215080178
0.0251358265050223989
0.00418934664132181167
-0.0485687995606744818
0.000526299909399988511
-0.0573315212335771193
-0.00318363923171143329
-0.0646295465839463734
-0.0107791181635421961
-0.0748621898265510177
-0.0172669616349422871
-0.0878707373592137048
-0.0256673280280783934
-0.105105093076482414
-0.122334377048177068
-0.0376088021804120362
-0.00764263548137993423
-0.0162227512079361792
-0.0227372476274732283
-0.0292177980362843814
-0.0432447916748782829
-0.0627621882365289319
-0.0825476672708404108
0.00645899863923961488
-0.0282051424909804185
0.0171390575651138403
-0.0297850113878625547
0.0481749670497080354
-0.0210299868307943782
0.102411765256324963
0.00905218055762722906
0.1571473775304017
0.066812269724055337
0.188754988615449121
0.133694726580559003
0.183529681328417876
0.19254276422268829
0.00823128761488594457
-0.0364364301479673455
0.0174694407879816549
-0.039023164462027915
0.0293892604451197123
-0.0329498067822832572
0.0573764212403866519
-0.0189349801296035403
0.103277685462414587
0.0209110053535980708
0.153024960295897544
0.0839474510841570487
0.15536703661765025
0.181187604611399156
0.00705670778213993155
-0.0434931386272228229
0.0134973372691245003
-0.0454637940680138672
0.0191913383101815944
-0.0386438085334416051
0.0275636319819533328
-0.0273072736992818234
0.0489663700962368817
-0.000491733145585131898
0.0871525297235906521
0.0457612907489263129
0.111301401722952942
0.13121816416620935
0.000595295021186926371
-0.0440884338647012444
0.000440629056475324524
-0.0453091280841603078
0.000342311335073693709
-0.0385454912992404877
-0.000964550278708338634
-0.0260004121816013803
0.00646290448505411775
-0.0079191884189884227
0.033956688975326825
0.018267505486442806
0.0639038127407480228
0.0813542773970593325
-0.00643152080080978267
-0.0376569134107061637
-0.011582992038252065
-0.040157657099799883
-0.0129235183886998607
-0.0372049654908207517
-0.010709832532078134
-0.0282140983261336062
-0.000410647116838911146
-0.0182183744256881053
0.0129922413599729246
0.00486461607612826037
0.0369558908903182409
0.0399401630579106423
-0.0100492169294829591
-0.0276076972302884797
-0.0199352291670098491
-0.0302716454771025378
-0.0260308151299713658
-0.0311093801472178792
-0.0261004721521665914
-0.0281444419161726161
-0.0215472193675842819
-0.0227716279413078988
-0.00590629631142609596
-0.0107763074573831458
0.0234219825491893859
0.00762761158124638725
-0.0232368459139305657
-0.045403877692104827
-0.0684009915515850914
-0.0839496719343304915
-0.0856721303295292225
-0.0659425087924520037
-0.0441228698211505246
0.746780649712313283
0.661768244916180581
-0.556451059463711761
-0.852097845422270739
0.642867195020273896
0.654444474941021093
-0.550531027828892405
0.540794561942415375
0.649441870891792616
-0.547369243011358253
0.439370743658956175
0.65156577926570991
-0.550141963571222581
0.336580018484417876
0.659906879928146117
-0.557116156768033055
0.223738442494852585
0.692033156952356121
-0.579191581696138713
0.763203468509758398
-0.643905418954604958
0.514782671259646385
0.731942205501734278
-0.5849566406389618
0.442716714533625988
0.726510425473067323
0.370895601242617223
0.72126298011813017
0.297509205417164357
0.724952172504984116
0.22590890382444942
0.731507180265766777
0.152837983001321481
0.765104077056762644
0.84733841939728205
0.237718470037796226
0.759863472277745977
-0.265639745261969595
0.210121481050987546
0.754107408345270014
0.182255473803457441
0.749128983247376423
0.152870475807632883
0.754337168031232519
0.121299461368300443
0.763078193039066099
0.0768526101038519149
0.809550927818165844
0.895041055586337508
-0.034110221683989278
0.759830890958310468
0.034142794961107864
-0.0279334173163879734
0.747930598157641624
-0.0158152665238804231
0.73701082837125842
-0.00333048441573311144
0.741852383131560544
0.00780027648842481804
0.751947430857959564
0.0120392444371051188
0.80531195883676876
0.921214743857960761
-0.316945911776844502
0.71842696603756695
0.358349828675599558
-0.273595908684311551
0.704580588836580923
-0.222715094023255539
0.686130009443610245
-0.163937400430455876
0.683074686884026727
-0.116523830463891837
0.704533858780458266
-0.0741075865758001745
0.762895714184909091
0.910755646884321868
-0.601092927887991291
0.629234118565618172
0.690285765238308091
-0.494519974616371982
0.598007628642788447
-0.38419453293921163
0.575804563110921319
-0.273109554728401482
0.571989705321936936
-0.182115159734659027
0.613539462443811079
-0.135662739069650901
0.716443292073641436
0.882676816675818432
-0.870992585831929178
0.53251364592315642
0.967713046618432049
-0.748302478998312481
0.475317514163625221
-0.588849276121069187
0.416351355281616209
-0.410942060891896999
0.394082488116097918
-0.262304688160995225
0.46490208798896121
-0.172517371201332564
0.626655974457986265
0.850792442460755582
0.866296880118629264
0.177038325609356173
0.899345672113009309
0.148138811493434996
0.873223476928673858
0.157340358145213743
0.792085773016478645
0.162491981138118136
0.591303706743922408
0.24072222822762751
0.286638734276265739
0.312292584481829505
0.405751718278760165
-0.163235854532051111
0.601314549189256975
0.202379749575074347
0.661494630265286321
0.0879587294369933714
0.628917701147775121
0.189917286951644032
0.44726547224161417
0.344144208997555934
0.12712522860425729
0.560862471631111248
-0.260610665857815005
0.700028477786369896
0.696679038495976344
-0.551537986613731657
0.325775507919895624
0.341506327816436861
0.18673689113176653
0.226997345080379442
-0.0417870227655393611
0.418441199842612133
-0.262669245080976999
0.565026430412369329
-0.45410352916649005
0.752296754789364863
-0.605495378645390825
0.851420326286388418
0.779158450149573523
-0.687974791379729722
0.0863940899706969884
0.649194721480512937
-0.184915803007867779
0.498307234195046522
-0.389687935623552861
0.623213328343224515
-0.584575339605789557
0.759913829960971121
-0.674625046518874227
0.842346457403559179
-0.673581198222025668
0.850376474248326186
0.784281673048842998
-0.678704424422333363
0.0552594388281443666
1.01028662866565377
-0.383747953216544424
0.937314615961266973
-0.641002424921245262
0.880467788789424222
-0.773881678914955629
0.892793072145326438
-0.723756001847254082
0.792220769261612223
-0.597868484483082052
0.724488947107287617
0.805902731369505299
-0.619489550934497535
0.223598658513302045
1.26200547222690318
-0.261600715070450296
1.42251397711265737
-0.628947353242923834
1.24781441338287147
-0.765456910024688519
1.02930261494701525
-0.630697128916849703
0.657460975023537952
-0.513600023624248059
0.60739183049160772
0.881014695078904397
-0.588711996472841892
0.449870878498510207
1.34464823625680441
0.230034598212475627
1.64235025442135152
-0.0267311680225034501
1.50458017679270428
-0.199823884914890282
1.20239532899523471
-0.292791122771435042
0.750428210316305133
-0.420729684555863181
0.73533039011015966
-0.543136830207622157
1.00342183907271232
-0.561364902490224194
0.442386604415986817
-0.711971690530931678
0.338842893038843185
-0.747248350986425947
0.214286997258983064
-0.760189368091740314
0.0914759968885920094
-0.721218117933153269
-0.0138354236947660914
-0.650276266355748311
-0.108550653726447358
-0.189644996446183572
-0.543178937237171144
-0.667355365316351423
0.558203981853437115
-0.722743855777686295
0.394231382672425357
-0.748068353229642158
0.239611493745234688
-0.750113708576125027
0.0935213515339475554
-0.712281866202817415
-0.0516672665842764847
-0.635472906896376144
-0.185359613438803861
-0.300735258610449696
-0.524382644985583402
-0.709300236330921763
0.579529425791878161
-0.745650025887532819
0.430581171107591532
-0.764307025644959115
0.258268492535362659
-0.74949928170987945
0.0787136067307139531
-0.709734209624881429
-0.0914323393122494082
-0.632179337327978819
-0.262914486253007618
-0.410260005075252621
-0.522654591313878147
-0.712582255769441231
0.61340725417961206
-0.746602736951512802
0.464601650306377956
-0.770719303740593498
0.282385057773438308
-0.753455854261830593
0.0614501558620934585
-0.711409072378444529
-0.13347912271382098
-0.634699476154543252
-0.339624084250338687
-0.518520209081340888
-0.52643927410047231
-0.700186169366347366
0.694103866718846052
-0.73585578232909854
0.500271259062491369
-0.766841816725373326
0.313371088908309225
-0.757237097083133137
0.0518454328585840826
-0.714293239135978086
-0.176422984655253356
-0.636972295180166292
-0.416945032954474049
-0.625307295849593325
-0.530185213541653377
-0.687448195937731543
0.792840059513420403
-0.735716539969435535
0.548539598432944975
-0.76962067054652572
0.347275215539864568
-0.762607906624972243
0.0448326647547010182
-0.721508543497771826
-0.217522352746516212
-0.6451379025802918
-0.493315679639242888
-0.733612317213564458
-0.536832887381421986
-0.655141102120707197
0.904844330055245893
-0.731776533481989788
0.625175029007584704
-0.770034567263102043
0.385533248575654852
-0.769306359157287289
0.0441044556410437188
-0.728804995495179186
-0.258023717622921422
-0.654339221772650359
-0.567781454710454381
-0.546075729123697728
-0.841875811225087589
-0.401358794150663445
-0.263071698549896649
-0.235183973127476936
-0.319831987163270437
-0.0499460215109643543
-0.358965015713569702
0.141002388496287462
-0.372660551687995278
0.328048057588430253
-0.364526297525537557
0.500037438884568308
-0.334240299054676948
-0.282261045302789282
-0.387544756681199587
-0.399909587209341444
-0.23051814197770773
-0.47685860207052122
-0.060661689869251148
-0.528821468222623881
0.113578687686539545
-0.546900929485789278
0.284343175928410741
-0.535290786225664061
0.440730921593452174
-0.49062804543025873
-0.420721706045864674
-0.385702145663141927
-0.536862033275984696
-0.231500904322484963
-0.631059843847447954
-0.0653696726463979805
-0.694952700326383122
0.104581464656679168
-0.716852067310392638
0.2698703511555407
-0.700579673392025537
0.422216452390240415
-0.64297414776994477
-0.555621411114619934
-0.389984586863133087
-0.673316722476120844
-0.235601932575814549
-0.785442499903690194
-0.0699174365054954644
-0.860637198004366999
0.0995780501860006467
-0.886347555610133897
0.264385507195299574
-0.865387132307424922
0.417037801619646376
-0.795626444603344418
-0.688725575936731782
-0.394680792800736979
-0.808821148219244335
-0.239678908386307898
-0.940444388873688752
-0.0732551742342815032
-1.02706093636596241
0.0969450248100548057
-1.05654775888810692
0.262391836914453891
-1.03083394910884896
0.415313682219993985
-0.94854829557338427
-0.820781142102392836
-0.400519073285648841
-0.945134968347772664
-0.244384454633847087
-1.09657901310360195
-0.0765048257680174537
-1.19494057047105717
0.0955069434866456513
-1.22855953348555524
0.262682586868060508
-1.19800959828618003
0.417155925537962047
-1.10302164131157809
-0.954156250129385541
-0.409156262104367285
-1.08205443665501955
-0.251277329454794529
-1.25445794694017243
-0.0804181962225561237
-1.3657997048721886
0.0951046362237127907
-1.40408236718507995
0.265396835592484837
-1.36830179917473038
0.421940656908036393
-1.25956546442236528
-1.08866665278846764
0.23384177732906708
15.3126796282734841
-15.2933022160973504
0.154438905589237563
14.8473297730286298
-14.7679269348986377
0.0770031494906120578
14.2781238294119674
-14.2006880880569888
-0.0252640350352558059
13.8093262908462755
-13.7070591389070966
-0.1683610518238009
13.308568295071483
-13.1654713372106507
-0.470560293570901123
12.9841252896455188
-12.6819261727396668
12.5414707109566113
-12.1475344004096826
-0.864496892159048014
0.253898057413096401
15.3221295640765014
0.131843598548443408
14.9693842341290146
0.0706679882491544481
14.3392994631828703
0.018430684865833432
13.8615636217173872
-0.0381865406933234314
13.3651855659473231
0.0194651827452902437
12.926473643021172
12.5380693241716834
0.0228666799852924214
0.256671615553331067
15.3393398562707155
0.109758457491758749
15.1162973759105146
0.137783727152061469
14.3112741792216838
0.146743478356588353
13.8526038611945648
0.174652269612206729
13.3372767717759828
0.309862079749255892
12.7912638622025785
12.3399774200995456
0.507953935921535149
0.220297366010660189
15.4038797233508031
0.119238902210931461
15.2173558724119484
0.211369325020441812
14.2191437917427699
0.217138789602070698
13.8468344332440161
0.265785405568516486
13.288630135105624
0.357440083393650354
12.6996091977365708
12.2943577606426633
0.403059716071080543
0.145448237043353912
15.5546621324563397
0.166399500081621909
15.1964045880012968
0.22673428062837922
14.1588090029198703
0.179205443373335188
13.8943632725739779
0.26100080252966662
13.2068347645044764
0.223809522967948732
12.7368004928164424
12.2790286017067327
0.239138675096421616
0.0736068470085607524
15.7891352036509058
0.24472141978087894
15.0252900329587824
0.204903779545236531
14.1986266394692553
0.137927152202687031
13.961339901633945
0.254824656612654799
13.0899372548333908
0.0222686299396183639
12.9693565289281683
12.1358295850395308
0.16546764292527491
0.181783053015615759
0.285379375878298369
0.188332513853232186
0.170205432710011983
0.172106000413800697
0.0244275073288274872
0.0874874503481814919
-11.9198337558986758
0.740012377670164589
-11.5906728129353453
0.361124811777222054
-11.1565674928902663
-0.0757554943578803569
-10.6240516086192791
-0.498373087143727411
-9.96654982741113926
-0.923141519980204439
-9.22778492749073287
-1.32372153066971943
-1.69304706488948908
-8.38683569723598055
-12.5019885266368451
0.560074715402424483
-12.175478031750675
0.0346143069921983557
-11.7269264181559407
-0.524307114452176704
-11.1507639522386164
-1.07453555736704787
-10.4606318269985827
-1.61327364820172359
-9.66560085078998021
-2.11875250894679024
-2.58060778815102454
-8.77804012852056204
-12.940448956674647
0.335052328174354153
-12.5786733795541092
-0.327161272160700123
-12.0972774320437786
-1.00570306233547768
-11.4997200461790232
-1.67209294262225927
-10.7942908294962834
-2.31870286439545081
-9.98527621736590554
-2.92776712061712141
-3.48514085721922662
-9.0807431481076506
-13.4739259084695036
0.101919091404736706
-13.1005966081991119
-0.700490576780716578
-12.6000004036497479
-1.50629926968271866
-11.9776279921362185
-2.2944653557660426
-11.2425646850878351
-3.05376617269767481
-10.4002539514095407
-3.77007785521926619
-4.42736649718636777
-9.45802831244917286
-13.9597651022682392
-0.139003894391177718
-13.5784167019552289
-1.0818389784815341
-13.064529694653702
-2.02018627683242569
-12.4223663675722236
-2.93662868334412419
-11.6605890930450347
-3.81554344739661699
-10.7886648666523222
-4.64200208183837848
-5.40384604773360877
-9.81218531691263252
-14.5139577110732514
-0.392973119611578436
-14.1166478232890036
-1.47914886933184953
-13.5831047122591215
-2.55372938849530939
-12.9175796370750593
-3.60215376055559533
-12.1294277355942715
-4.60369534923726853
-11.2246575722857891
-5.54677224572225125
-6.41816196631529401
-10.2103416549161192
-15.0574963246591444
-14.6582154257898161
-14.1074866268093739
-13.4181941491775554
-12.5974226310492483
-11.6549232011665591
-10.600615040547849
-6.32293085174611047
-3.15257148618588889
-3.93496124655830037
-3.64753505753105811
-1.34847083649500799
-3.9547921973195086
1.30660069274004975
-4.05915388458019422
3.89422436282583195
-3.95342336287080798
6.28422392455654499
-3.64445749626454152
-3.14758756003966411
8.34975706196416034
-6.60033682921983988
-5.33027478641014341
-4.09824825618106114
-6.14962363238304288
-1.39246642252694253
-6.66057403176530283
1.38250844721861821
-6.8341287553865282
4.08880331332775793
-6.65971822896476073
6.59226137944566393
-6.1479155645461665
-5.32719471718934923
8.77186853726426286
-6.83204839056994917
-7.57896954344349005
-4.2419534114887778
-8.73971861508767844
-1.44007750246469501
-9.4624499410036389
1.43382280766408909
-9.70802907120593517
4.23594205340026253
-9.46183747471467562
6.82659701050324674
-8.73857052604062012
-7.57708829323896804
9.0764905894387482
-7.11484829648126915
-9.92214955974307244
-4.41588324564880264
-11.438683670803119
-1.49810137388661491
-12.3802318103223339
1.49331743940215267
-12.6994478907422277
4.41133283931767206
-12.3798528706703568
7.11076215556972802
-11.4379998453757015
-9.92125450730574521
9.45492837596285796
-7.38170253571921453
-12.3526323402625646
-4.58335088448679251
-14.2370353286717446
-1.55473394425303435
-15.4088487550978357
1.55204399177317898
-15.8062258254816772
4.58083097668366523
-15.4086398512651268
7.37952767324549352
-14.2366965406884898
-12.3520547116409833
9.81032787650281435
-7.68174105767161564
-14.881232936505338
-4.76785971057633784
-17.1509166850657664
-1.61666408090178004
-18.5600443881329227
1.61424404653122888
-19.0371339485111655
4.76556482861925357
-18.5599606215398119
7.67963277597205529
-17.1507644857094732
-14.8810563267606852
10.2086343936293069
-7.97437750889269026
-4.94999275849068443
-1.67857855245485821
1.67718270765771837
4.94868069497924967
7.973217645127197
10.5996317978438181
9.19734180342118712
-1.68946053933754015
9.94971131161286415
-1.32015095103157809
10.610099577134152
-0.918411972892694606
11.1468188582681744
-0.492614813546296881
11.6051931310159979
-0.072841011726842389
11.8711804998935673
0.359187665310960413
0.749009127268767894
12.0270156979287002
9.66057000318133952
-2.57816200566454334
10.4563960120435429
-2.11597696097287979
11.1486153989473618
-1.6106313617045569
11.7280109240932298
-1.07201034187335686
12.1774406384898199
-0.522270732343183774
12.499530154702839
0.0370981402275841823
0.561997510219951368
12.6865417666729741
9.98242480004351052
-3.48409621592004504
10.793111195882652
-2.92666335605024885
11.5001821219120366
-2.31770228708509141
12.0997207251426175
-1.67154894519678576
12.5828169868288864
-1.00536699705028587
12.9465449727163993
-0.326629853396374126
0.335917118422957517
13.1726253546247563
10.3976400196354888
-4.42680786036760843
11.2405466444935467
-3.76956998109054897
11.9758840474811556
-3.05303969127518871
12.5976747557832915
-2.29333965364122472
13.0961425156426934
-1.50383475925075349
13.4673644974578988
-0.697851836833616956
0.103264062196630646
13.7000175491662208
10.7869924610985031
-5.40347244673369076
11.6589678707540187
-4.64154538966945651
12.4209735020919947
-3.81504532379444372
13.0639480392125247
-2.9363141891525455
13.580323665037378
-2.02021038738286141
13.9645894397173969
-1.08211761076905022
-0.138575540888114912
14.2064290382789586
11.2231813495170005
-6.41801940379463876
12.1283162533726294
-5.54668029058845402
12.9167682811898192
-4.60349735524798653
13.5822972644876057
-3.60184317123066444
14.1152271218141152
-2.55314024729367661
14.5113347721340311
-1.47822525862702392
-0.3920109693615349
14.7647701926722057
11.6540825219005235
12.5966739121373124
13.4176434199328991
14.1072464913820212
14.658564428814806
15.0587689461791232
15.2955369786169015
12.592068170025625
0.4457067451694392
-1.01075926466739863
12.6588747315414984
-0.0546478181222895681
-0.0121586234191765202
12.4733495272368131
-0.343105275694484457
0.52863054802896281
12.4202554757774504
-0.393661571522348042
0.44675565805781392
12.4218667275112153
-0.261382221971281747
0.259770979561009197
12.3251721549997857
-0.0666017420396542992
0.163296309967155218
-0.0683675484671923128
0.0819006427904618584
13.0162691802263293
0.115979332162984394
12.9852809569323373
-0.023659561775842216
12.895395156079152
-0.253219476035073499
12.849712698271663
-0.347979113550255625
12.9290519819231573
-0.340721508778535742
13.1981019416050636
-0.335651709142374521
-0.255842379679829701
13.359220379770246
-0.0706157042500025617
13.4532409095616732
-0.117680101267935919
13.454720670173133
-0.254699234756794513
13.4367310580941695
-0.329989491115815659
13.3929439275344482
-0.296934371746993719
13.3158524281471546
-0.258560201456245531
-0.293906900556885675
13.8409063724802142
-0.211504521942231349
13.9356334564709403
-0.212407188920175238
13.9667654079745773
-0.285831214768474617
14.0000431223431132
-0.363267222737144735
14.0863960030529025
-0.383287264641797631
14.199576591169027
-0.371740791773973178
-0.362758416970195674
14.3221287829552981
-0.32720425907473677
14.4223675276814784
-0.312645943589343611
14.4386910164827889
-0.302154708599126132
14.3945568945511297
-0.319133090925760143
14.3774285522717165
-0.366158914443310946
14.4459679324360959
-0.440280170207693167
-0.495607356908600694
14.8841817245269041
-0.446615787377452278
15.0469136296129165
-0.475377854438702563
15.2334806868833521
-0.488721752390625319
15.3790025903235321
-0.464654991593401456
15.4134352697554551
-0.400591595343971485
15.3108492265275071
-0.337694132332473251
-0.451213247010957996
15.3553596424236183
15.4066777678141342
15.4657198539356404
15.5707392366455597
15.7626089847344613
16.0410746595970934
-1.20449948774002125
1.1971620882401548
-1.44818643300132033
0.97901736768054648
-1.3533028524481916
0.65554466766227526
-0.69087612931441833
0.539968647918947275
0.107853195499346952
0.705850880650965684
0.728195782966923333
1.0220076672859586
1.20834712744278994
-0.00307157801514442233
1.18807506551322817
-0.0613227057958908583
1.03726853320004353
-0.106525543431717565
0.700747523114192639
0.00716462115695715683
0.426278567194695091
0.0045545338985441778
0.70846108396629448
-0.0332205148840075612
1.05978283227511816
1.19799331007918508
0.462824605256218991
1.25388101893461079
0.261390714637321442
1.23870244108091798
0.0505705867423570654
0.911567659925351159
-0.0757000046310028207
0.552549191377321613
-0.264725812365055546
0.897486927340628071
-0.452940157089694817
1.24799720424666671
1.25300709289188061
0.433685076752227006
1.26695160472389001
0.306030114666193342
1.36635740854950716
0.121560390041303604
1.09603738660182426
-0.0836840689399538512
0.757793657859653913
-0.273549840884751649
1.08735270655537364
-0.396178442162180344
1.37062580942395407
1.25988836732651532
0.288954091840910754
1.23776849470353523
0.204620471882901056
1.45069103087317486
0.0873022634737583986
1.21335559595213005
-0.0526680613081376287
0.8977639851718201
-0.183291109169000738
1.2179757568090599
-0.268071954978522098
1.45540665660754054
1.2309550876352422
0.184650199872007564
1.2164146046143216
0.128258404198536846
1.50708282653212233
0.0671612403070661751
1.2744527593087529
-0.0653457389926795224
1.03027096450805034
-0.128890927561313512
1.28152094522547455
-0.183725026766133448
1.51024075526599799
1.2126977036839901
0.0593357053569163115
0.0477315864801699796
0.0362626174305628948
-0.0435864881966152723
-0.0527230229440584161
-0.0630423106773870118
)
;

boundaryField
{
    far
    {
        type            cyclic;
        value           nonuniform List<scalar> 
686
(
1.5495649389425819e-17
1.17991542233209807e-17
9.24127330625947345e-18
7.2083689467786969e-18
5.66238379124061568e-18
4.40875018068812787e-18
3.91823342832078506e-18
1.61695621907090597e-17
1.2115247474982046e-17
9.37096822457123142e-18
7.3086767619805974e-18
5.83476055182832708e-18
4.72060642653241173e-18
4.05956805349821215e-18
1.58017686563506068e-17
1.23506561084820147e-17
9.66156600281808147e-18
7.59995611535777516e-18
5.69515310408024417e-18
4.32286135788158095e-18
3.81417985386452556e-18
1.61165639608492262e-17
1.23908456318625921e-17