/*--------------------------------*- C++ -*----------------------------------*\
| =========                 |                                                 |
| \\      /  F ield         | OpenFOAM: The Open Source CFD Toolbox           |
|  \\    /   O peration     | Version:  4.0                                   |
|   \\  /    A nd           | Web:      www.OpenFOAM.org                      |
|    \\/     M anipulation  |                                                 |
\*---------------------------------------------------------------------------*/
FoamFile
{
    version     2.0;
    format      ascii;
    class       volVectorField;
    location    "0";
    object      U;
}
// * * * * * * * * * * * * * * * * * * * * * * * * * * * * * * * * * * * * * //

dimensions      [ 0 1 -1 0 0 0 0 ];

internalField   nonuniform List<vector> 
686
(
(1.13402302332156868 0.503417548289585737 -1.65366554892094194e-15)
(1.14798790275040474 0.589422329209074003 -1.63954865819284986e-15)
(1.16085445011185295 0.668683485752834983 -1.63719251849161455e-15)
(1.19086340231207632 0.759494663290381178 -1.63340665044381281e-15)
(1.20809622126537231 0.860929050219737091 -1.61832072768452768e-15)
(1.2884549383269106 0.816015678814391299 -1.59557332952551062e-15)
(1.00386330049358019 1.08822389070486647 -1.74845734478083659e-15)
(1.31068205120512427 0.40444957835910178 -1.694641649194656e-15)
(1.36781750519549661 0.481934745847686474 -1.68719311131015098e-15)
(1.43997590738782066 0.543917302337784569 -1.67059796753912922e-15)
(1.48551437189891788 0.587864129972275662 -1.65692216260575974e-15)
(1.46098458505501405 0.709377250998076025 -1.65536590407683776e-15)
(1.69704175982969785 0.636634128408694933 -1.71278421149864386e-15)
(1.52090579521428837 1.01251736571008633 -1.81269655558166055e-15)
(1.48209038313671826 0.2491069008712469 -1.69686035199054521e-15)
(1.5280696358436423 0.299997925497288043 -1.7053459089840455e-15)
(1.58014947229176217 0.340303144106228306 -1.70779408001271618e-15)
(1.69643434483453404 0.35524980895992736 -1.69335626701174228e-15)
(1.75687422306480379 0.460786870297984485 -1.63098358404300451e-15)
(1.83906562226592851 0.254988969463077253 -1.58295080332957408e-15)
(1.48626582122677675 0.74632952730652713 -1.73340647815169292e-15)
(1.53430375981179234 0.0502081944610319811 -1.73210414505625537e-15)
(1.62381880078605323 0.0786827194866607516 -1.72663497181439202e-15)
(1.72839707880066062 0.0842807008910246153 -1.71138843250012018e-15)
(1.76623841642153523 0.0308228900987042032 -1.67991460934288249e-15)
(1.70846495178437041 0.189814886210511347 -1.73098730742648353e-15)
(2.08639859784746173 -0.106152649259467949 -1.83883717120982887e-15)
(1.95301125225454153 0.425420118030830574 -1.84578206054003782e-15)
(1.60328391766837797 -0.162195869014149591 -1.76385904644340858e-15)
(1.66871323167397545 -0.15980115504603648 -1.74855775735833021e-15)
(1.68065032590237218 -0.132090155569565021 -1.75641796495671897e-15)
(1.79026447107868947 -0.123298986466511135 -1.73109422673706355e-15)
(1.97873120793586632 -0.095193014669651646 -1.68594103406900741e-15)
(1.86893379226988832 -0.216801006301421628 -1.67763919216828037e-15)
(0.635339044518686058 0.32734075397131096 -1.53141293875887235e-15)
(1.51249404110542907 -0.356339318162948393 -1.7925439469873412e-15)
(1.57929813048895218 -0.347619548240389931 -1.79750309513076193e-15)
(1.7772789507621134 -0.360856627801828589 -1.74851294830205672e-15)
(1.93552614024157887 -0.381759565585749694 -1.70306870377569371e-15)
(1.68390170198166977 -0.311915352081758024 -1.81706850561584284e-15)
(0.741336632588847189 -0.1230910084890421 -2.20055057464085503e-15)
(-0.98235430968203874 0.35756019510857423 -2.85806112264661723e-15)
(1.51125108180107603 -0.630416782160432621 -1.78918612365433276e-15)
(1.73638357189870884 -0.68395585642402934 -1.7344517729831983e-15)
(1.79459973753539681 -0.686942038555161449 -1.71125616708225636e-15)
(1.44412171518037247 -0.526538997752617255 -1.91650855493905371e-15)
(0.656944829942633368 -0.206077357262631516 -2.2793590375790981e-15)
(-0.287218101006728121 0.0915773585097137965 -2.72517698011464199e-15)
(-0.18358961841110813 0.30514864823086546 -2.70764161630051575e-15)
(0.733398021806015987 -0.353971544009050731 -1.55518034638422813e-15)
(0.702934619687905493 -0.410536110566488366 -1.568306161210875e-15)
(0.705492696466075153 -0.498752480500812945 -1.58539829265980823e-15)
(0.712245665642195491 -0.561246128672795885 -1.5799286680993462e-15)
(0.598890417651307461 -0.544493180917004049 -1.65982330372992666e-15)
(0.566727241696077466 -0.572770296926946809 -1.71054754162666393e-15)
(0.531065178428329565 -0.75737275981148533 -1.83016271422749893e-15)
(0.618082463028204687 -0.251605897476124496 -1.53748678030936684e-15)
(0.565382362043773679 -0.298162551283237265 -1.55541539479890454e-15)
(0.513471777948400709 -0.345439425182868354 -1.57309956435745045e-15)
(0.434887032755233938 -0.370046651801750726 -1.58222605842022912e-15)
(0.374874873468795555 -0.42441644474730672 -1.64058407776283049e-15)
(0.404282229104879265 -0.532807427071318673 -1.60411241928390787e-15)
(0.245309885807911521 -0.541795877540549808 -1.68384205399180045e-15)
(0.535903517400320384 -0.0907979042949252774 -1.50172745057208954e-15)
(0.464033127642560106 -0.109727398599206466 -1.5270580980453397e-15)
(0.389981673698171771 -0.132268713706911678 -1.55380799069076257e-15)
(0.306631191350500043 -0.151525796311881178 -1.57210939041619723e-15)
(0.255317214910814994 -0.19173362274280098 -1.61727185636342223e-15)
(0.163913277250601924 -0.183700271458830333 -1.6079615967115074e-15)
(0.0701405564329608128 -0.170281008804907846 -1.83204782407971591e-15)
(0.524151555323352225 0.100114457932126907 -1.45443370289149862e-15)
(0.44788909921585679 0.108118837629564618 -1.48082584738382189e-15)
(0.36885256124840754 0.124739564866164679 -1.50667809611042409e-15)
(0.282315661542642149 0.122989786095908799 -1.52941875507177386e-15)
(0.20326295794933627 0.139970084375100667 -1.59260284434188329e-15)
(0.125501955611870358 0.158092670333852992 -1.56500032421641749e-15)
(0.0417239271303807696 0.118832131854010162 -1.7634727054669772e-15)
(0.589735452471296662 0.285457179190341914 -1.50190776924259432e-15)
(0.525688619538328683 0.326487676797220683 -1.51656499739313284e-15)
(0.451839244994733658 0.371598458721339509 -1.52819710735877358e-15)
(0.385159179674594843 0.424516307492507461 -1.53085950592227393e-15)
(0.307600834185892957 0.444584786370589347 -1.56756927091210058e-15)
(0.227268389567393758 0.490362301391883526 -1.60785074422447888e-15)
(0.149897442173543061 0.557821728857021193 -1.79042104292870707e-15)
(0.730042361148921626 0.430123267858778524 -1.56133008644583635e-15)
(0.683946194862013912 0.499808561387231176 -1.56886944716991978e-15)
(0.628406937504203511 0.563560441364530651 -1.58635440396075309e-15)
(0.579471448645690224 0.636923638310661233 -1.57395435525064189e-15)
(0.546606911946513563 0.720601688207684887 -1.60079155473381865e-15)
(0.513762275137526259 0.75290804807308076 -1.6061200760972599e-15)
(0.331318572319129145 0.840874802693748924 -1.75143545543562235e-15)
(0.923860612719442864 0.506209466622011051 -1.59560599818829222e-15)
(0.910469173345812233 0.593467046832363732 -1.59150997473124703e-15)
(0.898400717471012356 0.679790157502144443 -1.60335513056671745e-15)
(0.879577535273713185 0.755906977578082895 -1.59426209352609762e-15)
(0.836313576423050598 0.828689571862231689 -1.60404300951039208e-15)
(0.891175377821890935 0.89536752221555338 -1.66354973144800254e-15)
(0.734603846232553703 1.08393302534217062 -1.80343519201352491e-15)
(-0.0841748796561561791 0.0526222496952519353 -2.77277843053153522e-15)
(0.0149171056057500959 0.208928363333892142 -2.34696026249049278e-15)
(-0.0134175791899397434 0.306300918093518282 -2.38171102438562252e-15)
(0.103056180756965224 0.402875147931307354 -2.30848777080811757e-15)
(0.245115183813743309 0.483576250122375206 -2.23273774259010141e-15)
(0.385682459849073289 0.490062990038951707 -2.12668368427206736e-15)
(0.317641021715888372 0.26252139664850882 -2.14483889645206392e-15)
(-0.471343133416663562 -0.277569607915206351 -2.32754174944603666e-15)
(-0.400754193021605531 -0.209358434250909636 -2.48209415103755257e-15)
(-0.285032191879500851 -0.149342123810013688 -2.64089079140940065e-15)
(0.0679395682015632996 -0.0600369381698380514 -2.56717214372534264e-15)
(0.531924522505318187 0.00540769678004128507 -2.31553592241150884e-15)
(0.889583781141884966 0.010779967207922854 -2.07622452401619186e-15)
(1.21657161491483401 0.018173552574164753 -1.8220617946018717e-15)
(-0.275904629286062852 -0.117421296873572084 -3.08668387214409001e-15)
(-0.247500270346333873 -0.0656945896431138932 -2.99026185378398734e-15)
(0.219595891348596917 -0.128851559852507652 -2.66372239079299866e-15)
(0.80264931008395779 -0.199540805021264422 -2.27032113924503405e-15)
(1.2129550288008637 -0.247188071340111559 -1.95760481575225226e-15)
(1.43566255002415732 -0.257667821911602479 -1.73371774141875304e-15)
(1.38493760005256794 -0.243516755774270705 -1.66277742704986161e-15)
(-0.188118925317549063 -0.118387323580938841 -2.03131296312248829e-15)
(0.6781669275389548 -0.145974984415138537 -2.09819411404475801e-15)
(1.19334560401096157 -0.317451118533402077 -1.82384479150625022e-15)
(1.4407573027407341 -0.39954807253831176 -1.62020195942381957e-15)
(1.43256005846978374 -0.392876636802079238 -1.55649053603712438e-15)
(1.28549278594232197 -0.331679599096961319 -1.57607938406269231e-15)
(1.16194830502020996 -0.238104961667907983 -1.64033356736645958e-15)
(1.01391522187209548 -0.563302866191365381 -1.57495134872289675e-15)
(1.53035919412855326 -0.400168604617232915 -1.70174092791051863e-15)
(1.36536222082181635 -0.505444801432968216 -1.64116415595303417e-15)
(1.18381356636477886 -0.407677435218478101 -1.68679390694549155e-15)
(1.04605016121698657 -0.359459105772433951 -1.73832464569004342e-15)
(1.0963988461998222 -0.342977003941260628 -1.69836958986719852e-15)
(1.14778503610027549 -0.342043071914716446 -1.6565087198807055e-15)
(1.07661052493146325 -0.733589603910688171 -1.92527933219499139e-15)
(1.06517652344625713 -0.418893944618608405 -1.78040330808143555e-15)
(0.943146376033119793 -0.515406479997357114 -1.71400597085374743e-15)
(1.1075925800416031 -0.4610271947619341 -1.64620861173097247e-15)
(1.12240613250200227 -0.489439912924830856 -1.59797132152222916e-15)
(1.09000151523808597 -0.457178980859474227 -1.57057195032600293e-15)
(1.03400553393839134 -0.378546175922230888 -1.58562275320593685e-15)
(0.777227820013579707 -0.793661741158690481 -1.68766181368535419e-15)
(1.04561566218272239 -0.655801374545127769 -1.63459542690239192e-15)
(0.956112971658024446 -0.689264303224685682 -1.6244541207855081e-15)
(0.87169712008657263 -0.592340966342299047 -1.62674834291583891e-15)
(0.812160489400524543 -0.474389940188144177 -1.6574832223430777e-15)
(0.857479192002183033 -0.447747497539288219 -1.61520213377125695e-15)
(0.902649711538127453 -0.409600458447617499 -1.58515925974409731e-15)
(-0.405230496029543197 0.647108712791557128 -2.57086843759705769e-15)
(-0.409950728022501709 0.542126556970101148 -2.81315827628396229e-15)
(-0.185646496963278645 0.345944135954836418 -2.76354392896323681e-15)
(0.419383936972367088 -0.094376192652093488 -2.46435686244993006e-15)
(1.10827054343862241 -0.547679259601556723 -2.06034822393696138e-15)
(1.52006801463302255 -0.837181385916349163 -1.81632658090143875e-15)
(1.52883675204085789 -0.889274480114622401 -1.78465430405777342e-15)
(-0.237360548484268463 0.866338476766887133 -2.55423483729708684e-15)
(-0.359541289802823183 0.726373706757102111 -2.62323650272887837e-15)
(-0.149299626936297336 0.560375906264166335 -2.63466606274766347e-15)
(-0.00315727906186280723 0.268317551370221064 -2.67956157766947593e-15)
(0.427668337132590615 -0.244790378827728139 -2.44907501515576064e-15)
(0.939516544868487347 -0.760385450748020775 -2.09948587730284244e-15)
(1.22418244896192907 -1.0850841141890839 -1.85208358905312045e-15)
(-0.0950907392184119904 1.19483961847385012 -2.6160485471128636e-15)
(-0.271200190607900182 1.07035313878411342 -2.60093533040302634e-15)
(-0.0982868743295826491 0.825571318857219238 -2.46745365938002398e-15)
(-0.0545593686572849804 0.544737034058690783 -2.50108976699357834e-15)
(0.0897378147696967915 0.0883727365735686166 -2.48706672898860518e-15)
(0.363292150346089027 -0.48969163188582987 -2.26924708498038742e-15)
(0.687617198419727238 -1.0428305647590892 -2.00131074229127572e-15)
(0.141902497362727587 1.14993418424333615 -2.96573602876551342e-15)
(-0.0586126734521360687 0.993248873215645811 -2.73570670750675052e-15)
(0.0244982700824981983 0.719360278507964024 -2.52810713727120756e-15)
(-0.01687906190860455 0.442070380709199795 -2.43651713882661054e-15)
(0.00399966607346554509 0.140050965286875939 -2.38650770239415126e-15)
(0.0306258866278998031 -0.280245553731448382 -2.27253073151570367e-15)
(0.249686798012473232 -0.758164267017036986 -2.02541180883898172e-15)
(0.340661206094944047 1.08709134959002518 -3.09429828248760041e-15)
(0.126260710358669925 0.984986562596224635 -2.85319357478956334e-15)
(0.10356212860103825 0.714517832273896647 -2.69446587832613392e-15)
(0.0221241942805154509 0.438003676524044872 -2.46668868519137657e-15)
(0.0201531132991398486 0.224280760566250043 -2.30916929970273329e-15)
(-0.0377338093550895481 -0.0505844110187089052 -2.222532283225544e-15)
(0.0122310244212824153 -0.429466228655451698 -2.15661901032380739e-15)
(0.438569836975753469 0.886207071295824433 -2.99770115873534826e-15)
(0.338823720326941691 0.896227033272678719 -2.58592262372068646e-15)
(0.251195508650822741 0.832530929961773247 -2.74360611643212918e-15)
(0.165296844521652192 0.656810548405381112 -2.7009216149286935e-15)
(0.0926283462709143052 0.445358052898311985 -2.55387356559660601e-15)
(-0.0180433559737734756 0.214443235259450138 -2.41186792770079731e-15)
(-0.0262884664790260895 -0.0465927432691633225 -2.25918138345863946e-15)
(0.0594298597158649106 0.199189227273744662 -2.74055818457770465e-15)
(-0.0515930072091611569 0.21135229123802135 -2.40626255911990981e-15)
(-0.165796447328430352 0.246419202558327249 -2.54551566366445414e-15)
(-0.197816336643062918 0.281837541179574547 -2.48585470945545592e-15)
(-0.178921418079406425 0.31978527215233965 -2.46545656321963586e-15)
(-0.180233329632604633 0.253940614613091031 -2.38496513223742752e-15)
(-0.403521152146447681 -0.128142600928100231 -2.38408369750763539e-15)
(0.991095499322018458 0.0450739597338507339 -1.66308477743449213e-15)
(0.997541712729191565 0.0546306094512576806 -1.69258870450667597e-15)
(1.00000894987106004 0.0685445957713741727 -1.71372636104495751e-15)
(1.01237330680063531 0.0848243215513249521 -1.7344540031632128e-15)
(1.02066584883517475 0.119616522641856321 -1.74056871292183137e-15)
(1.054439323371825 0.162053570038684508 -1.7155414919728364e-15)
(1.09562005976712262 0.296625142637039207 -1.67115482072677821e-15)
(1.00779258486009593 0.0360006518223221078 -1.78126230499205623e-15)
(1.0147163371964798 0.0439819873204758821 -1.8130374701187662e-15)
(1.02084113874972893 0.0553009124111734987 -1.82356930382648884e-15)
(1.03578956358877239 0.0677554029344315106 -1.84762843467691955e-15)
(1.05019405187627046 0.0975050174389065077 -1.84969502182317526e-15)
(1.10743369090508881 0.1384332674718185 -1.82468684496681642e-15)
(1.21864149651771192 0.212330957698656425 -1.72453229944146678e-15)
(1.00470605551959458 0.0390881945292749708 -1.88628805908783943e-15)
(1.02018779695460382 0.0391784615838455322 -1.92481875527727299e-15)
(1.033480341025792 0.0420199985133786688 -1.93799500869098477e-15)
(1.06722500215616889 0.0403988314182469471 -1.92787903508357336e-15)
(1.10238743894520419 0.0478997903306234984 -1.91218250239163988e-15)
(1.17084721339739195 0.07059906323355776 -1.8648838542567776e-15)
(1.3201599840831042 0.118808695590856744 -1.78325671695278288e-15)
(1.00960741636267737 0.0224285417054271817 -2.00011491031636633e-15)
(1.01748045940952347 0.0275954102969307585 -2.01554673340763809e-15)
(1.02580916521149246 0.0206641159058183685 -2.03654758799031134e-15)
(1.04398284641026917 0.00779044879855975494 -2.04935447168001345e-15)
(1.075633752659787 -0.00530909792649262614 -2.02471088663404565e-15)
(1.17919823719307892 -0.0225649219703787859 -1.96460246099292104e-15)
(1.34905906232437744 -0.0441779997294466376 -1.84655800420741305e-15)
(1.00430772611643371 0.02279831134406771 -2.13238161704095815e-15)
(1.00603990706435975 0.0190458338397410804 -2.12950746019960767e-15)
(1.01719701830131526 0.014363799910564955 -2.10350602386813731e-15)
(1.05574471264687197 -0.0222485741221466575 -2.07873685646508875e-15)
(1.08805607804777082 -0.0669612660198831977 -2.0302686663626026e-15)
(1.17492525550710214 -0.0891171709600874495 -1.96384921198780711e-15)
(1.36123471601396417 -0.224232371824505505 -1.8772640320705616e-15)
(1.02767612401345709 0.0300020010836995789 -2.2582355394104876e-15)
(1.01890659066901135 0.0151989273702229158 -2.26065941789275456e-15)
(0.981584430048178747 -0.0091910029399124276 -2.2598623358669593e-15)
(0.955594106625243689 -0.0548995629738257135 -2.25466981665365169e-15)
(0.992600320773627143 -0.154001131207567643 -2.16540776897780925e-15)
(1.10746303287533387 -0.253434483339916139 -2.04172172803000138e-15)
(1.34451213832300853 -0.371294905776462125 -1.86477398753492622e-15)
(0.98542429582150326 0.0710788787481927559 -2.43625011557124975e-15)
(0.952093045980059727 0.103661696363619993 -2.32317806492380666e-15)
(0.936988699619193843 0.0731926147952509376 -2.27864624516628275e-15)
(0.911806631953614777 -0.0134852267566627892 -2.17479335759287474e-15)
(0.897749699580707938 -0.151570625220773442 -2.13278159796950677e-15)
(0.977486994985982571 -0.337957688458028593 -2.06860529543581642e-15)
(1.19262061279185927 -0.560675940949614482 -1.92869235918698196e-15)
(1.06749596072356212 -0.821292193211554555 -1.93935470502477949e-15)
(0.933476252341300272 -1.0339699772640758 -1.91273814329106176e-15)
(0.800450392532690791 -1.10739530373060191 -1.95440872336818952e-15)
(0.507725755235290954 -1.24236635909241566 -1.96310172968766549e-15)
(0.072153697631670663 -1.20567847580735377 -1.98978247735584722e-15)
(-0.240815639390557862 -0.743433615144585835 -2.37768530014300455e-15)
(0.0994551593170683867 -0.307433737599323464 -2.44135554124339892e-15)
(0.867957333908125905 -0.556546923662911919 -2.06406782793014379e-15)
(0.476264298838410927 -0.725833912758061306 -2.16883235663281522e-15)
(0.266375474983412242 -1.01558908965655093 -2.19762368320204729e-15)
(0.202237530956748846 -0.855987653641111512 -2.39618865104689163e-15)
(0.482223564212051925 -0.646575477049406655 -2.48247889137755414e-15)
(0.860930764707874552 -0.396156570563125254 -2.40980577806227715e-15)
(1.21739446784541672 -0.222350869397665324 -2.06207314831829629e-15)
(0.654731214556822594 -0.360186073515864402 -2.248476866414398e-15)
(0.292755350086794208 -0.22743550276438429 -2.27311629194865251e-15)
(0.51502394022481357 -0.130652944307524194 -2.14883051010032236e-15)
(0.734639998576172126 0.238409104600173061 -2.42843662851008106e-15)
(1.1687502733002908 0.147307690857516049 -2.367800605171002e-15)
(1.44806098917286796 0.0867846443875409101 -2.09186753105585784e-15)
(1.47091864535826855 0.00491389924830396181 -1.90365461815603373e-15)
(0.697369573906810092 -0.0689876644336316625 -2.34985393177253594e-15)
(0.265827843612082171 0.326795446648910859 -2.33951304469446024e-15)
(0.552159683930363521 0.499585057740780658 -2.05041961409927977e-15)
(0.796375558989386834 0.696880960976061892 -2.23722779434848478e-15)
(1.09906860694195951 0.602529098526110363 -2.16348908078025142e-15)
(1.3090221365532555 0.428322020773917844 -2.07738729661908584e-15)
(1.2829475108546855 0.179623691406057023 -1.87678187196422871e-15)
(0.917436921670721217 0.0949238442112788072 -2.3748531836289733e-15)
(0.393903333746038198 0.566333385508975162 -2.55507605680420932e-15)
(0.480195304877018281 0.915116888661029582 -2.2701607741145238e-15)
(0.836807903508178685 1.01421167590867389 -2.0789836197222017e-15)
(1.05550796820136195 0.798289228473291645 -1.92493887442776531e-15)
(1.10519255066120903 0.431322907271541378 -1.8409828701751686e-15)
(1.10739295044372232 0.179144981002479109 -1.93105365577066408e-15)
(1.14025980143473182 0.131656326064460816 -2.33715441213460645e-15)
(0.84561974385657368 0.487407482504641831 -2.66216586485351916e-15)
(0.638307892360808427 0.913914914253060595 -2.67154714468004622e-15)
(0.722151748502273261 1.08400420469197534 -2.44103311860933129e-15)
(0.721912271053204213 0.817649422141294657 -2.2504473079637735e-15)
(0.713680239224294133 0.40034051085804534 -2.17437329475881807e-15)
(1.04959261301972595 0.197531150441041442 -1.85168542096283191e-15)
(1.16610785259251881 0.0637743700806114311 -2.34906681492940869e-15)
(1.25279373914271086 0.116405803408706474 -2.53086039904272537e-15)
(1.07620303593699029 0.177353729275231076 -2.7069383968157354e-15)
(0.878246015127036705 0.242606302426845832 -2.77608842570721696e-15)
(0.597586774246788521 0.192490254412850809 -2.72727482292614321e-15)
(0.637104283247966863 0.198585989329713525 -2.53344064732928763e-15)
(0.98805882180043858 0.158192891224798571 -1.69376994744003446e-15)
(0.991328444270031972 -0.015792156774167742 -1.83975615998522744e-15)
(1.16247768885517822 -0.0877319957405630346 -1.72470491406279706e-15)
(1.14396603078075043 -0.150316561110144881 -1.71546796183286153e-15)
(1.12009134945018984 -0.168371858856789541 -1.67107478785929605e-15)
(1.07979160025566645 -0.233398814402795057 -1.65679394947751763e-15)
(1.00530821507083323 -0.248749879187177586 -1.60250670192594127e-15)
(0.913206329045961773 -0.261577335101325636 -1.57053859561232166e-15)
(1.36611137442193598 -0.141675123223635263 -1.73761142725779484e-15)
(1.16540316256553589 -0.171008331443141842 -1.80196953562185753e-15)
(1.14494146912665484 -0.137353132180698778 -1.74839779689491684e-15)
(1.09616660496633722 -0.163151509456250954 -1.69228453677787015e-15)
(1.0538425414028374 -0.173549597280754891 -1.66273398333548749e-15)
(1.00135302785655877 -0.177359410257132477 -1.60888586969508746e-15)
(0.940803397654100926 -0.1655818134926135 -1.56261904473879663e-15)
(1.30426629175844844 -0.0259290252599536294 -1.81704046728979061e-15)
(1.17357214985726754 -0.0947373432461786208 -1.82547040509740064e-15)
(1.13839137694794346 -0.101952090485937605 -1.73629015146788972e-15)
(1.0766161612038434 -0.123887216118741872 -1.70188007612749123e-15)
(1.04197798876350034 -0.131669730167282811 -1.64068466541486769e-15)
(0.997745112258287215 -0.129957989454075551 -1.59843934421432325e-15)
(0.953294461110944291 -0.125605554855043905 -1.54060557443541896e-15)
(1.17236327766485071 0.0731270659161317171 -1.82468680314314001e-15)
(1.14044575744005106 -0.0205086785225739206 -1.81262680196685843e-15)
(1.10607920792536163 -0.0585968898692890913 -1.70168175043644356e-15)
(1.0663669759455332 -0.0755392476044816491 -1.65173031509342762e-15)
(1.0296962419751734 -0.10221552793044715 -1.62151909709526873e-15)
(0.998785959293857717 -0.0942791282244153511 -1.57064049262742384e-15)
(0.970689090114692399 -0.0879020241519010842 -1.51174357167767082e-15)
(1.08605683084003757 0.0824530259420693662 -1.85098620984933903e-15)
(1.096819498027094 0.0144545844908526479 -1.69663100256969481e-15)
(1.06875515309969793 -0.0510892786382601063 -1.67687920168832197e-15)
(1.04873973678677856 -0.0548743540068701019 -1.5944392489866968e-15)
(1.0204641076082468 -0.0794782349175411351 -1.55361048175839475e-15)
(0.993098632481263399 -0.0746345623376681311 -1.52287560474893832e-15)
(0.970206717126169238 -0.0706857408105893564 -1.47771564385134701e-15)
(1.04106033657097874 0.0304776025708772685 -1.80213468130208109e-15)
(1.06529290570206059 0.035261748198027118 -1.6634628584239554e-15)
(1.04863812079618124 -0.0447105619404210286 -1.58948099191031855e-15)
(1.03601397353961966 -0.0392745316968777999 -1.56083807128487602e-15)
(1.01187574457784679 -0.0623815157423198222 -1.48537376183076968e-15)
(0.996724652396208777 -0.0569663583129271928 -1.47241436755296235e-15)
(0.9767051483682897 -0.0536862189849732357 -1.42621797720404867e-15)
(0.971460849155343031 -0.0227207825387150467 -1.72806190073599359e-15)
(1.04276752012373319 0.0292658403080623269 -1.61051224412385578e-15)
(1.01743775499402611 -0.0405590439362792099 -1.5068229526538166e-15)
(1.02940321488068087 -0.0309935823248558041 -1.49654476367726603e-15)
(1.00288761044954589 -0.047457349656687825 -1.43748871917463993e-15)
(0.993485495962798115 -0.0458323093269539447 -1.41786768309989887e-15)
(0.976136484950326233 -0.044156188804219329 -1.38435500533311051e-15)
(0.822604917266594904 -0.226070641570949138 -1.51111895783094232e-15)
(0.7315424655701801 -0.155743526992509013 -1.46544117687292736e-15)
(0.68304726468503929 -0.0504599909793815027 -1.43463942545570077e-15)
(0.67737426729951411 0.0691258399522825667 -1.3818670034120621e-15)
(0.728776604901195557 0.185171298951413321 -1.45140086711711464e-15)
(0.830881281321898313 0.269485321203185357 -1.52513527117170835e-15)
(0.955428787150254588 0.312785013529835287 -1.60614224001566174e-15)
(0.885958491819090366 -0.132618320211618401 -1.51179631490417539e-15)
(0.848383778027292923 -0.0853360861797353154 -1.4287758081655283e-15)
(0.825499484263512051 -0.0234775782197854076 -1.34446150828674901e-15)
(0.825514860933056038 0.0400992497931217801 -1.27526343783375868e-15)
(0.855243739100920441 0.0993181845717442391 -1.38182955945823902e-15)
(0.907108067716904998 0.14703154905620866 -1.51415976819398222e-15)
(0.969850338963078262 0.169956683987600721 -1.63256034724929802e-15)
(0.910976783743123297 -0.0959967701833533693 -1.49676928848128399e-15)
(0.88268193330712974 -0.0612863575329784804 -1.39344673620072636e-15)
(0.871913426067661756 -0.0158084832226024485 -1.29939916882501172e-15)
(0.87271707166912893 0.0293226521652055656 -1.19900192208965922e-15)
(0.892819007875679804 0.0701380446891852471 -1.32644711420443754e-15)
(0.923009964562122698 0.104302489674974186 -1.50039396852190835e-15)
(0.966889021975135043 0.120246627098093195 -1.63359010026337163e-15)
(0.942876825878093516 -0.0656034579012309965 -1.45320526965085476e-15)
(0.921335395497306475 -0.0414733265851274721 -1.36242824414465316e-15)
(0.914882951707570835 -0.00927442964669407746 -1.22361934765453358e-15)
(0.916626079946037842 0.0214780499027830835 -1.10895990050144061e-15)
(0.930096021266133333 0.0497987687047599104 -1.28126786762620946e-15)
(0.950782756939050788 0.0726371561877782596 -1.48160672058549397e-15)
(0.982470942999632224 0.0830718655856959171 -1.62786482973892126e-15)
(0.953183450441499325 -0.0515553374602292155 -1.41939174021523346e-15)
(0.936644079016532904 -0.0320610877185815921 -1.3266138466741833e-15)
(0.932003555890756896 -0.00723649903219179304 -1.17333307550330718e-15)
(0.933085187882627842 0.0169248382561514761 -1.04009994784483643e-15)
(0.943492696007633636 0.0388168129148377394 -1.23210726649241214e-15)
(0.95815454094543584 0.0564683530303397713 -1.45722729887618906e-15)
(0.980898792612908466 0.064930094402077948 -1.60060405257217158e-15)
(0.964478520397037853 -0.0386435388016082085 -1.37639309246938165e-15)
(0.9510081772587472 -0.0241413227646219593 -1.28767145395611103e-15)
(0.946843735705298117 -0.00552338150648523912 -1.11788277505677829e-15)
(0.947576587596631104 0.0131501187609361567 -9.66819422502750468e-16)
(0.955236317851930861 0.0305579845978893629 -1.18576109705198692e-15)
(0.966840350121079273 0.0437459752263065701 -1.42076251403096778e-15)
(0.98469982250974597 0.0505681391195666463 -1.55667741867706937e-15)
(0.966318496138666383 -0.0325635375846217157 -1.33009851511540456e-15)
(0.955155820116961984 -0.0206781605505326864 -1.25224138841925464e-15)
(0.951182190834405805 -0.00557108257003562264 -1.06548607825466556e-15)
(0.951331233048174352 0.00999955294461292964 -8.96652048003752288e-16)
(0.95769258188028572 0.0244911580970026826 -1.13001540285061456e-15)
(0.967044023047479384 0.0355060618771753933 -1.37781906210095387e-15)
(0.981113832890913029 0.0420030297423601637 -1.51498963616183065e-15)
(0.999954153514939548 -0.00212948337518569604 -2.65329104331843222e-16)
(1.00611552618712863 -0.000741405109588356612 1.44581430013580278e-16)
(1.00550526229013282 0.00343697239559418886 1.51926818675567844e-15)
(1.01054268390901436 0.00646442020103876226 1.87358550898937665e-15)
(1.01055037524911406 0.0140018610929366436 4.87504200827764238e-16)
(1.01464442313622993 0.0229826157605740253 -3.44724853071680716e-16)
(1.01056070789295838 0.0625965057480377535 -2.2089975189614061e-15)
(0.998399015524125799 -0.00545066317544172854 3.22015932478747098e-16)
(1.00967732207889949 0.000836713783734625697 -2.24312398782770246e-17)
(1.00846441962168809 0.00634441791082375646 -4.79218909432140473e-16)
(1.01508830309478149 0.00517601490371944872 1.03759296956706921e-15)
(1.01668189431929457 0.0081686271346761985 -2.82248544382533392e-17)
(1.03310252384010504 0.00866748875188538825 7.42100941216446193e-16)
(1.04552005517416102 -0.00654095850971264312 -4.41202770662941936e-16)
(0.99608262224320554 -0.0119614458408481977 5.31458398204416259e-16)
(1.0163544033603078 0.00794191438661166933 1.08834902735872507e-15)
(1.00914752074835445 0.00379978128031649692 7.81327667613213514e-16)
(1.01442038952428826 -0.00211534419011001834 -1.65409088698292698e-15)
(1.01893905132136875 -0.00329088717717838843 -2.07532199373953123e-15)
(1.02218542186011097 -0.0123631076446944765 -5.60933032447363919e-16)
(1.03190735087396201 -0.0274692906935101802 8.57602501755728585e-16)
(0.996138298816190759 -0.00847906578830840037 -7.91044600130150307e-16)
(1.02324347022620499 0.0110885464372510283 1.0885462168085007e-15)
(1.0006729110451722 0.000471132811539921881 2.93578091544586259e-15)
(1.01036278320614104 -0.00887589000988033353 -2.379019125417458e-15)
(1.01055686286297997 -0.00548819005064155041 -3.13074506925372214e-15)
(1.00525151409841906 -0.022928622762738899 -2.70440960067409246e-15)
(1.00364261578704306 -0.0223967232002143003 3.63747182267151146e-16)
(0.997485454910970626 0.00828460964122475912 -2.6523159076077032e-15)