/*--------------------------------*- C++ -*----------------------------------*\
| =========                 |                                                 |
| \\      /  F ield         | OpenFOAM: The Open Source CFD Toolbox           |
|  \\    /   O peration     | Version:  4.0                                   |
|   \\  /    A nd           | Web:      www.OpenFOAM.org                      |
|    \\/     M anipulation  |                                                 |
\*---------------------------------------------------------------------------*/
FoamFile
{
    version     2.0;
    format      ascii;
    class       volVectorField;
    location    "0";
    object      U_0;
}
// * * * * * * * * * * * * * * * * * * * * * * * * * * * * * * * * * * * * * //

dimensions      [ 0 1 -1 0 0 0 0 ];

internalField   nonuniform List<vector> 
686
(
(1.13049257615827425 0.500676747445764403 -1.67087679661951747e-15)
(1.14369820494264807 0.586742460663661869 -1.65747980368302403e-15)
(1.15886402252805598 0.666799337625014643 -1.65507526883188251e-15)
(1.19126914138530116 0.758844506231083127 -1.64943960081864465e-15)
(1.20811963735237216 0.859898298619630408 -1.63204000786370411e-15)
(1.28442394863127651 0.815282385346877803 -1.60755275406063484e-15)
(1.00447023610108088 1.08546363318363648 -1.75692939303359897e-15)
(1.31182610333234306 0.401567737353646426 -1.70447297705251088e-15)
(1.36884919341942957 0.479376993428071885 -1.69904655231655463e-15)
(1.43942852143623923 0.541133591100444344 -1.68504566753241511e-15)
(1.484172703004772 0.586238501079680119 -1.67239235807464939e-15)
(1.46305406485014267 0.706266976185345063 -1.66692313715134666e-15)
(1.69676804548213189 0.635641100411288851 -1.72886375639023755e-15)
(1.51917558377582029 1.01013884651399555 -1.82499990070198986e-15)
(1.48213392596068672 0.245085256600541951 -1.70386682486580292e-15)
(1.52583699543084617 0.296846045238480294 -1.71816696958603146e-15)
(1.57814823548013194 0.335266899147000141 -1.72117275156211481e-15)
(1.69445019889738635 0.352801241991284986 -1.7072125644625622e-15)
(1.75739471549455883 0.459743098021946961 -1.64997162644891006e-15)
(1.84470923533106856 0.25598196800078088 -1.59470626364968679e-15)
(1.49538616710101935 0.745511750953644525 -1.73747758057292742e-15)
(1.53316325283308585 0.0453486688134200344 -1.74947112249598076e-15)
(1.6292923716648029 0.0720850186454685127 -1.73923824043643193e-15)
(1.73403980539998637 0.0787611888429144841 -1.72573770797425167e-15)
(1.77359362293853806 0.0227273234315054223 -1.69212670726412659e-15)
(1.71303653986142734 0.183008525297022384 -1.74918455138306814e-15)
(2.07610045748138727 -0.111250847915190243 -1.86492980594396452e-15)
(1.95331089804529645 0.423375789038019368 -1.87709646687815822e-15)
(1.60033300240983078 -0.168656339063250754 -1.78081051515863218e-15)
(1.66477809405374688 -0.167661803231416051 -1.76385542350007453e-15)
(1.67661568295798147 -0.141310835623829234 -1.77033326303313381e-15)
(1.7829195210316553 -0.135905913755522856 -1.75246210349307323e-15)
(1.974929631270816 -0.105285075067752046 -1.70929140525158012e-15)
(1.90371763630746682 -0.234250278391501393 -1.68643102728510708e-15)
(0.716254043941641494 0.312969101777668457 -1.51659502604669234e-15)
(1.5010330331545263 -0.371440468392552903 -1.8033035111072918e-15)
(1.57004875729698701 -0.363940382341339463 -1.8096221419527893e-15)
(1.76775718247841196 -0.37923623935382661 -1.76284251303124063e-15)
(1.93643413032870426 -0.399666044848328905 -1.71836146534833801e-15)
(1.71899119852473237 -0.333297439977323862 -1.82191131385127122e-15)
(0.813942563893210624 -0.152420562747571847 -2.18817627736526677e-15)
(-0.94038491835342608 0.341972120356793363 -2.84051601422552337e-15)
(1.49627331047275103 -0.64227397095097849 -1.80981379929918763e-15)
(1.71909584028422557 -0.697731315820603992 -1.76031390652887228e-15)
(1.79095249575289506 -0.705266041440665403 -1.72483370342319977e-15)
(1.47548198288206733 -0.560825629774312384 -1.91529928739378374e-15)
(0.723064970887677738 -0.254478703447653443 -2.26131598256054563e-15)
(-0.217937180090982535 0.0495398568230958 -2.71123764637403229e-15)
(-0.194878003976397707 0.29738247742552304 -2.7369265263411384e-15)
(0.735601183224444011 -0.357276447359876181 -1.56626386378213369e-15)
(0.704552888148898049 -0.414162815397564721 -1.58155968611143329e-15)
(0.706258089667755717 -0.501758117838636108 -1.59811738754319556e-15)
(0.713942669738367175 -0.565317263140147852 -1.59464540727457789e-15)
(0.600605805922283076 -0.548613258670125115 -1.67146979799338355e-15)
(0.568931769654250408 -0.575671883667179474 -1.72722192311568793e-15)
(0.534111903119021014 -0.763106813522031469 -1.84425801767357472e-15)
(0.619570909731877228 -0.254853268933946608 -1.54812804270371794e-15)
(0.566927737618279637 -0.301569327042589097 -1.56552166667486268e-15)
(0.515286462684927171 -0.34908947796833617 -1.58201976632421333e-15)
(0.43763929032217086 -0.374613084790199391 -1.59236655035183108e-15)
(0.377311721260604638 -0.428439817062409689 -1.65091369653028658e-15)
(0.407117589888008613 -0.537334330428444584 -1.61651176991021697e-15)
(0.24802758063964217 -0.54795541966328476 -1.69537264019971995e-15)
(0.536843716906709068 -0.0943814416483792634 -1.51431812824424181e-15)
(0.464996194616424108 -0.113529246238463014 -1.53862823692577497e-15)
(0.390886541464567416 -0.136251657504505908 -1.56208989806365485e-15)
(0.307867544553973083 -0.155851345070126684 -1.58251944241525132e-15)
(0.255989751667854259 -0.195747424798267233 -1.62847497684891652e-15)
(0.165343625501043701 -0.187841110670345757 -1.62244324838012343e-15)
(0.0693333801713036518 -0.172480176600500079 -1.84102755052878481e-15)
(0.52436672031095366 0.0964016329499189362 -1.46837174711515945e-15)
(0.448034865647972014 0.104486708723762201 -1.4933300039483748e-15)
(0.369309450732777378 0.120327746252110651 -1.51857728582450461e-15)
(0.281882205677770892 0.117892224424116343 -1.54207883973154315e-15)
(0.204274061354296516 0.137230663694890842 -1.60228633749428226e-15)
(0.125112664807429302 0.151800488636207848 -1.57851289650813595e-15)
(0.0423860821694581058 0.114255010879153532 -1.78439629581837125e-15)
(0.589500114051217716 0.28243406116877684 -1.51625543742755569e-15)
(0.525475004561355985 0.323208819024707272 -1.53005227895143097e-15)
(0.451377898482457574 0.369209543944072904 -1.54146438223849538e-15)
(0.38444792822120849 0.420445732900499247 -1.54575086540641854e-15)
(0.304357267918644425 0.438831077514022616 -1.58486535573225116e-15)
(0.227718379725409953 0.487554479744604419 -1.62970514624229845e-15)
(0.149247899492465308 0.555751913064018943 -1.80471239611398328e-15)
(0.729192871039158308 0.42730836612521883 -1.57538321743246107e-15)
(0.682783373348009093 0.495773487600901452 -1.58293981866401305e-15)
(0.62707258088750284 0.559665421928384643 -1.59934241144295422e-15)
(0.579663551325910631 0.634949381314950489 -1.58675563110579541e-15)
(0.54661885112639641 0.717045981653675057 -1.61396901527540934e-15)
(0.50979985883993395 0.748063616639674578 -1.624084489852578e-15)
(0.330521989251020831 0.835423982458603387 -1.76585037948842353e-15)
(0.923956420932140143 0.504493736450759234 -1.60894089815366445e-15)
(0.911345710738698744 0.591950858657228407 -1.60439934872158535e-15)
(0.898614635164289188 0.677227562014975026 -1.61514833151818424e-15)
(0.87735946163952605 0.752776917091304454 -1.60648111811007862e-15)
(0.834566767804202247 0.824984613074344786 -1.61619699322401798e-15)
(0.890082304591835904 0.893653356978383995 -1.67924457458779376e-15)
(0.73217776862755013 1.07963472362582924 -1.81379149214606411e-15)
(-0.102894634654309439 0.0452888775978740193 -2.79959112108384676e-15)
(0.00713466708521535726 0.21759336729938078 -2.37935031332152708e-15)
(-0.0279924173949540681 0.308532189564991177 -2.40357038733569453e-15)
(0.0861912883759751447 0.396220722925434587 -2.33218512484268834e-15)
(0.228853673442895367 0.46722813098391125 -2.26100322398500075e-15)
(0.375740079233162549 0.477720695987474964 -2.15026656061804053e-15)
(0.294126345962291869 0.226986926413243417 -2.17370610771752315e-15)
(-0.476881623707049007 -0.285740249062385709 -2.33877845275378838e-15)
(-0.400427410921469273 -0.204138237859567584 -2.51253767808289881e-15)
(-0.270140538026075905 -0.143152003058633431 -2.65776626371487664e-15)
(0.0833319816776814798 -0.0497090350488365029 -2.56413558611299823e-15)
(0.544112677265184863 0.01179589805193915 -2.30846842823974101e-15)
(0.900388461690468822 0.0150719909884440215 -2.07151228742287582e-15)
(1.22181719715505199 0.0215565375765722871 -1.82586518640449772e-15)
(-0.287758264901755711 -0.122406950381180379 -3.13770086649992546e-15)
(-0.269771772502791829 -0.0679916659779800231 -3.01579173087369237e-15)
(0.218433869731826408 -0.130326803738207569 -2.66865905868408065e-15)
(0.806223864099224974 -0.200526292380000137 -2.27331883278335355e-15)
(1.21231513283210424 -0.247731929264111805 -1.96790940791935113e-15)
(1.43266047382483541 -0.260010965472210975 -1.74983804525103606e-15)
(1.38194591435564562 -0.249651275153175201 -1.68151603723547332e-15)
(-0.216108924170414413 -0.115500664649766299 -2.08431569259416031e-15)
(0.662132574131451879 -0.146923964440632576 -2.13025734260689984e-15)
(1.19395716986631961 -0.320999787600176056 -1.84268631129416206e-15)
(1.44615228024388376 -0.401714105045300696 -1.63940028725087588e-15)
(1.43856195384010488 -0.394283281460877377 -1.57337237291382098e-15)
(1.29497615665901833 -0.332971980361544351 -1.58762678784529735e-15)
(1.16929947654733635 -0.238766234814102279 -1.65078187995326594e-15)
(1.00506220882008579 -0.564164130741508174 -1.58158386634955982e-15)
(1.5350132058948236 -0.405075157512850614 -1.70992654192784154e-15)
(1.37381719957256676 -0.511269590975698796 -1.64839234634935459e-15)
(1.18864000589759455 -0.412513520223439845 -1.69594400408181005e-15)
(1.05023706871143907 -0.364867511292507329 -1.74453759404978409e-15)
(1.10057869787437257 -0.347330891589543167 -1.7054212768875621e-15)
(1.14834358451717922 -0.345340376128054072 -1.66790044144955545e-15)
(1.08231299793584146 -0.738714025835799037 -1.94186012086124081e-15)
(1.0695022444839315 -0.421142094163555469 -1.79925938157267831e-15)
(0.943290448683304805 -0.517475773962105534 -1.72609370090069035e-15)
(1.11023498704786694 -0.461468387059242924 -1.66057148371025957e-15)
(1.12720055287403542 -0.492340762769416684 -1.61016378731358115e-15)
(1.09668907945667948 -0.460147950810042172 -1.58168197002006067e-15)
(1.03954776521272274 -0.381226706726837949 -1.5957978800203396e-15)
(0.778597516502733455 -0.796540465882539683 -1.70170605401463593e-15)
(1.04983975206905522 -0.656819671701351804 -1.64665879809674235e-15)
(0.960026600580832778 -0.693063065316519622 -1.63348775614381839e-15)
(0.874244255408532789 -0.593957119591001836 -1.63841103402323178e-15)
(0.815237151380948322 -0.476136137831112249 -1.66512053248256916e-15)
(0.8617206402254457 -0.450709397830807212 -1.62271164831867826e-15)
(0.907307783045237737 -0.411518304173155824 -1.59330033934521016e-15)
(-0.391259551173431586 0.61884735199708929 -2.61420838407588281e-15)
(-0.375448163125616574 0.499312761222221346 -2.83160994108987e-15)
(-0.134222534077618305 0.282798756508297833 -2.75420606003672518e-15)
(0.486192018635761281 -0.163257548527958679 -2.43083686849808027e-15)
(1.14209027243928074 -0.596471690734888482 -2.04181751433633346e-15)
(1.51458926362013857 -0.860680012065107358 -1.82132799648352306e-15)
(1.50737347416729572 -0.89880244748195115 -1.80311128990729345e-15)
(-0.235793856748718 0.810311042443467189 -2.58593015486817717e-15)
(-0.317045994459839109 0.651374796752622554 -2.64323254686936615e-15)
(-0.127231023713601787 0.482361771318549237 -2.66742136401555406e-15)
(0.0380411946281205976 0.167644140457308133 -2.67348010465940594e-15)
(0.476205900555290995 -0.344414559454321534 -2.40359655110169206e-15)
(0.95108739744975157 -0.822598664408971225 -2.07405006642740105e-15)
(1.19726617241008371 -1.11456744145449194 -1.8545597839416606e-15)
(-0.101205635572537186 1.13358108878171682 -2.55590516102976979e-15)
(-0.246968463121209403 0.994015486232808221 -2.56660202186571951e-15)
(-0.0881844607776363087 0.747959859632725932 -2.47610908022499939e-15)
(-0.041956274169176383 0.455192209155156069 -2.51561469965963946e-15)
(0.118821796234133914 -0.0158292520678846201 -2.46795419999957779e-15)
(0.378974734007893332 -0.570349297038284075 -2.24411498069783857e-15)
(0.672240933162187471 -1.05815517132816095 -1.99915833218027293e-15)
(0.123558455906716186 1.08963423869282328 -2.86076919228272196e-15)
(-0.0499955543094840332 0.925964773474336811 -2.67569835937485492e-15)
(0.0228452649478087973 0.646402476038344886 -2.50082343595847907e-15)
(-0.0178018172483103351 0.362627669717724699 -2.44033006851766601e-15)
(0.00219311902931800451 0.0477921052268700589 -2.38646247950167546e-15)
(0.0390662907554271827 -0.364740693555627882 -2.25718921482591974e-15)
(0.248528710947227643 -0.789806776704510161 -2.02423539524016118e-15)
(0.317680174125078763 1.00162148604947854 -3.08111104439969016e-15)
(0.109419047280817749 0.884552947405506718 -2.88747568172883455e-15)
(0.0879322621444842134 0.597328982780187867 -2.67954141037691211e-15)
(0.0129849281947627612 0.325660419454594952 -2.45027165538614975e-15)
(0.0137561568442454325 0.12273965033920764 -2.30186449597219363e-15)
(-0.0389544402525328279 -0.137840375467374487 -2.22197256634130574e-15)
(0.0098027327793599895 -0.487945428187197383 -2.17026889587703215e-15)
(0.451080978098704177 0.90759135775894284 -3.08600060385414437e-15)
(0.355898567525436638 0.904180392854774695 -2.64516290001902855e-15)
(0.273249764707608256 0.812544782700420076 -2.76270696706899957e-15)
(0.175043412914525298 0.604920466991901051 -2.71677719118251399e-15)
(0.0956834999562918703 0.371529755404691797 -2.56259131926847652e-15)
(-0.0228511265995728421 0.129067338536613729 -2.41845620588251975e-15)
(-0.0247418130898049392 -0.13829153869639732 -2.27048754753409259e-15)
(0.0823715273387406188 0.225920498575658713 -2.83763416144985452e-15)
(-0.0310077735484275349 0.227469609039546633 -2.4275250727296117e-15)
(-0.155940751963080132 0.241597011561031444 -2.57078051029916154e-15)
(-0.212427940004720456 0.235181049371413486 -2.52150267432809439e-15)
(-0.205138398556865109 0.244545425769767621 -2.50111600312916137e-15)
(-0.17123080506138072 0.205266689345960374 -2.41333411819014143e-15)
(-0.390083666401211115 -0.195575589751082191 -2.38517708691017893e-15)
(0.990977511867177308 0.0446664923421097385 -1.67364241965180101e-15)
(0.997289499845429361 0.0541626697495180692 -1.70320825389900009e-15)
(0.999577297623926331 0.0679010906467289455 -1.72409288504934626e-15)
(1.01161010571327958 0.0840502488981091644 -1.74635942730787997e-15)
(1.01952638570805565 0.118443657597422064 -1.7528908740071878e-15)
(1.05307036655678354 0.160800685138744903 -1.72844355715923249e-15)
(1.09404925904408468 0.293711912889060067 -1.68369679869815045e-15)
(1.00759700474562441 0.0358287808023070656 -1.79110934102296854e-15)
(1.01437978933905626 0.0437043017885439186 -1.82313236700838906e-15)
(1.02026413252101067 0.0549602776155895395 -1.83458397672756633e-15)
(1.03499069499700491 0.067310058323334962 -1.85930288789899868e-15)
(1.04895829396954166 0.0968010634811838355 -1.86131051726113585e-15)
(1.10540549799086674 0.137295004260893694 -1.83681689808092772e-15)
(1.21754185567960138 0.210856336044937198 -1.73719298939289224e-15)
(1.0044009982243618 0.03921911721676926 -1.89508291976418175e-15)
(1.01972939187709111 0.0395087612117483652 -1.93394098182279116e-15)
(1.03259489971137319 0.0423186577448333504 -1.94852371233758861e-15)
(1.0658789315908519 0.0404044471593153001 -1.93893496817901678e-15)
(1.10065202968736875 0.0475749235165350559 -1.92357128943799496e-15)
(1.1692767010642009 0.068176480601376363 -1.87631575292145137e-15)
(1.3168979864006829 0.118173523993456112 -1.7987982143562322e-15)
(1.01000025733079313 0.022247081219682413 -2.00899926611080356e-15)
(1.01726306057435423 0.0282628187987279816 -2.02392610476334217e-15)
(1.02513114174004816 0.0221561466855880844 -2.0449074652244609e-15)
(1.042411651453508 0.00903584077616403566 -2.05943727907006029e-15)
(1.07215743145946951 -0.00410762717666355789 -2.03506006041260262e-15)
(1.17472118366294409 -0.0213929650210128233 -1.97664123507052997e-15)
(1.34238194221574503 -0.0525928600712170374 -1.86274660645751949e-15)
(1.00587383885697657 0.0232026213509262599 -2.14069896570895328e-15)
(1.00752278343231505 0.0195625582033348705 -2.14005785697417559e-15)
(1.01717993404960305 0.0163452064149532984 -2.11400483520759698e-15)
(1.05471768168120739 -0.0192711193637796069 -2.08940989112785986e-15)
(1.08674550721730911 -0.0658212728704983541 -2.0397757508452303e-15)
(1.17075170448473176 -0.0882533116381305771 -1.9730630512544971e-15)
(1.35918818234954686 -0.226650087189749772 -1.88392670005633732e-15)
(1.02928359223448895 0.0308474704644665608 -2.2658038905176414e-15)
(1.02191787117925403 0.0183509158606414736 -2.26816058083046351e-15)
(0.984744137922441531 -0.00528383399353547084 -2.26870061667426956e-15)
(0.953576394918140613 -0.04810773098881585 -2.26535208575392782e-15)
(0.985112455054882097 -0.14677888380777554 -2.17980584804047875e-15)
(1.09581334221498805 -0.254757423647294257 -2.05939214568880823e-15)
(1.33211726078688764 -0.372005804696415643 -1.87872051097590238e-15)
(0.990750600180256846 0.0675250647883766653 -2.44332880192595423e-15)
(0.958768532049904199 0.104410998492946161 -2.33175017739539551e-15)
(0.942216582163903915 0.0808010732143745608 -2.2879747783016309e-15)
(0.915372960619144083 -0.00176514572595581117 -2.18003589933646796e-15)
(0.892984874595113665 -0.140955526624461591 -2.13723222696901478e-15)
(0.965980112823144221 -0.330156400617114543 -2.07524370588989653e-15)
(1.16572076651263079 -0.570972379284571674 -1.95235510984072359e-15)
(1.05048157774512019 -0.830840890285122202 -1.94835774888051169e-15)
(0.928793534498609907 -1.01866231078655889 -1.92229669331216731e-15)
(0.784205143253833725 -1.10290486892275319 -1.97017050901586538e-15)
(0.442602823254667099 -1.27086250638564913 -1.97989794899498141e-15)
(0.0090466563273282341 -1.20976771958583051 -2.04783707845321682e-15)
(-0.214716822174818051 -0.74643516894245876 -2.42955863393733043e-15)
(0.147427762974562976 -0.331180860932077326 -2.43882354812918856e-15)
(0.841528415814241648 -0.551694819538689596 -2.07832380628479599e-15)
(0.425981846353089888 -0.71989006785383558 -2.18793210296623105e-15)
(0.242028843594335352 -0.989851911804209506 -2.2180411031234733e-15)
(0.226729652193399744 -0.772793635599828055 -2.43010519043337576e-15)
(0.557561228852931912 -0.571235485399642307 -2.49737308725747579e-15)
(0.937574547454213647 -0.354424539259691529 -2.39575192790142565e-15)
(1.25688368299414899 -0.209698352657019638 -2.06020737082964825e-15)
(0.640046252166335594 -0.338190800162418259 -2.26348029230525608e-15)
(0.283997537240206044 -0.168543841281543122 -2.27353355683927677e-15)
(0.525682129254755548 -0.0532953098114335583 -2.13870484406440045e-15)
(0.748174246532078313 0.316352325556215064 -2.41729182832932113e-15)
(1.18134369098333414 0.215706478020618903 -2.35576276961023698e-15)
(1.45885962549208958 0.132267703000112313 -2.08728192244637394e-15)
(1.47325076212251993 0.0260776048971139915 -1.90765182845981082e-15)
(0.705853062647679552 -0.0432990596081028051 -2.36121836954372604e-15)
(0.264819616893230525 0.374046106245879362 -2.35447404640188219e-15)
(0.548401182443376878 0.556384175076572229 -2.05392176762200496e-15)
(0.795563078232775833 0.732362368344925296 -2.21606847970005064e-15)
(1.08347341462075697 0.633146494842415697 -2.14421599971099084e-15)
(1.2873194733897213 0.451988530503445674 -2.08083716715056324e-15)
(1.26999517193878453 0.195911812202706925 -1.89137746980579945e-15)
(0.943336969651404456 0.108066706973510118 -2.37676589219567335e-15)
(0.423421561194206819 0.576886412815923899 -2.57813739708267187e-15)
(0.477398826712517155 0.93587103211007705 -2.31812440684692127e-15)
(0.819634656590524924 1.03869850371486172 -2.10845228204105587e-15)
(1.03733615241137422 0.821950749168160466 -1.93906481753568759e-15)
(1.084879594125288 0.441442308064889266 -1.83836241066571983e-15)
(1.10101810325071892 0.187837974139014569 -1.93037054050916924e-15)
(1.15796179972079027 0.131498082345550743 -2.3386532874108564e-15)
(0.898249517573981859 0.460372365986924881 -2.66257287859036756e-15)
(0.677266321079191824 0.864764202306321006 -2.70493622046125685e-15)
(0.723971256619260428 1.04762646713385799 -2.49727003974808402e-15)
(0.70233123892269067 0.810005484891985095 -2.29306144070087843e-15)
(0.68281110242688603 0.403498673721893741 -2.21815848253495996e-15)
(1.03954126740945219 0.209428021459971497 -1.85086991719871908e-15)
(1.16918338516828224 0.0574549542824933437 -2.35681599760825719e-15)
(1.27347779312111831 0.0906160466886734295 -2.52955615615216165e-15)
(1.09960501760632101 0.12851730546308851 -2.71010275300474032e-15)
(0.88934863395994268 0.185920604647135168 -2.79556471799598678e-15)
(0.59314103562182563 0.153650615789760137 -2.74762026688423432e-15)
(0.624862363070986748 0.184305682949506167 -2.57101533042002324e-15)
(0.980722041543417467 0.162975865731019826 -1.70679669803574389e-15)
(1.00824376212267386 -0.0305376513031181476 -1.85259836203150228e-15)
(1.17457021239407422 -0.0921098057082863214 -1.73458519169882786e-15)
(1.15087399399204893 -0.152740689736696522 -1.72852227510223057e-15)
(1.12772116631869701 -0.170292828740882307 -1.67904728202136519e-15)
(1.08353687573601465 -0.235183385597382694 -1.66687036150226504e-15)
(1.00922990835782822 -0.250781338385598018 -1.61218169263413455e-15)
(0.915857679719917384 -0.263350055519242787 -1.58117880376759831e-15)
(1.37788903995223477 -0.132663101962244789 -1.7509762058260271e-15)
(1.17699263243301444 -0.166782173043894505 -1.80882013928231727e-15)
(1.15074547900701041 -0.135953035018553936 -1.75998170337790806e-15)
(1.10180524250981304 -0.161657622756399832 -1.70073928048335976e-15)
(1.0574292182242051 -0.173622752078617076 -1.67156972367847863e-15)
(1.00459444668450004 -0.177898522030576295 -1.61772747144325122e-15)
(0.943383654534763805 -0.16650945546288512 -1.57148281606501462e-15)
(1.30462723553770221 -0.0103442085965249359 -1.82729757814549527e-15)
(1.17853516009949133 -0.0850970169070527221 -1.83334585670983083e-15)
(1.14134998034385116 -0.0980485811172276123 -1.74353769270890432e-15)
(1.08021988299545901 -0.121497802829709428 -1.70928975340399008e-15)
(1.04444040765704838 -0.131279997440691021 -1.64870946989961984e-15)
(1.00026516480103522 -0.129755047737443258 -1.60618156583389768e-15)
(0.955396370193505429 -0.126213178731383463 -1.54923280811985655e-15)
(1.16896102970772287 0.0834605592460373191 -1.82889127662149392e-15)
(1.14074384745681834 -0.0124631205951247354 -1.81669128976181263e-15)
(1.10702045347544686 -0.055328711697283095 -1.70978340936680889e-15)
(1.06861994704615082 -0.072435050314880095 -1.65621865862074964e-15)
(1.03158161417524918 -0.100962637678333467 -1.62659004748809102e-15)
(1.0002697346425633 -0.0941807794191746595 -1.57908830362005952e-15)
(0.972275646716196706 -0.0882042376737391803 -1.51936244464512802e-15)
(1.08155923051259828 0.0855256010548730433 -1.8620300129978304e-15)
(1.09577992212580755 0.0209726920900016739 -1.69837692560329475e-15)
(1.06892714055015325 -0.0485794583637898306 -1.68068406586193268e-15)
(1.04951752652712349 -0.0530365653794399872 -1.60009350264001561e-15)
(1.02194028131981374 -0.078306859152206254 -1.55873950230545078e-15)
(0.994337948294138796 -0.0742453034930152245 -1.52964939721736615e-15)
(0.971310319049146997 -0.0707815427255979873 -1.48457015877182438e-15)
(1.03585705089349833 0.0308367491089054264 -1.80344097391788577e-15)
(1.06342338342916287 0.0388736171536325087 -1.66971779534033476e-15)
(1.04837705059002984 -0.0422493663623355331 -1.58980526709872042e-15)
(1.03652527031698627 -0.0378437763708149785 -1.56556169097588132e-15)
(1.01271205686136012 -0.0613211915797691395 -1.49001960159303851e-15)
(0.997555527582333235 -0.0566393034669924883 -1.47751665957976079e-15)
(0.977542575704594352 -0.0537388299702384678 -1.432776363987233e-15)
(0.966279081722928535 -0.0222665195418870997 -1.72364495199714124e-15)
(1.04063601535934236 0.0302693678791347252 -1.61379626361577058e-15)
(1.01648525718727911 -0.0388059645974853304 -1.50762126749225832e-15)
(1.02938051022180721 -0.0301997654929839279 -1.49960662038184846e-15)
(1.003560081188416 -0.0466085797768392984 -1.4416722216759634e-15)
(0.99412740105822861 -0.0454361135417765197 -1.42242583633320952e-15)
(0.976788236944813759 -0.0441300007757937859 -1.39070912009089298e-15)
(0.825227443302301911 -0.228646633112325248 -1.52175159731016598e-15)
(0.73364719909084164 -0.15818928081919939 -1.47632372710329015e-15)
(0.684087477961629387 -0.0530176280377289075 -1.4473950472567371e-15)
(0.67794172155164345 0.0666278311529960865 -1.39478591193159818e-15)
(0.728681166418861936 0.18268778034167954 -1.46510894420700098e-15)
(0.829992974714617082 0.267044813815100923 -1.53900539632578229e-15)
(0.954008925757296566 0.311403898778307819 -1.61928360654469782e-15)
(0.887768107103326543 -0.134059578524435924 -1.52029346194174036e-15)
(0.849649132215214764 -0.0869898903873419643 -1.43919266020265042e-15)
(0.826358542192186074 -0.0251905422102530786 -1.35551197814715846e-15)
(0.825875359344654947 0.0383013956570334643 -1.28809089634773989e-15)
(0.855188613909500295 0.0975917385702851359 -1.39649853855118494e-15)
(0.906756922752671501 0.145249618681054321 -1.52731691695833014e-15)
(0.969296219895967925 0.168211460792757533 -1.64499937858320189e-15)
(0.912476056695156301 -0.0971634003126750773 -1.50571856351593768e-15)
(0.883862473813667893 -0.0625260203459562097 -1.40444184225825541e-15)
(0.872687983547693835 -0.0171910400472102751 -1.30976791428250415e-15)
(0.873144413248770124 0.0279021391669952608 -1.21129445076094745e-15)
(0.892925552995486704 0.0686751421220014452 -1.33991309695077211e-15)
(0.922730879481958199 0.102916546754494534 -1.51288489836405409e-15)
(0.966229093227291114 0.118873202513798792 -1.64602242490278199e-15)
(0.944159529899176397 -0.066193963108416895 -1.46262283252972721e-15)
(0.922273856356460864 -0.0423208950797993796 -1.37292443159733173e-15)
(0.91553604058035909 -0.0102749965922713446 -1.23493990529412573e-15)
(0.917010567056745329 0.0204186069281820579 -1.12133675085907484e-15)
(0.930210146358777745 0.0487083757961714256 -1.29259431195030257e-15)
(0.950647712699409841 0.0715823473629542406 -1.4944694859217464e-15)
(0.982043754745157926 0.0820874998714253429 -1.6391789659732981e-15)
(0.95414390193128007 -0.0520117301284480776 -1.42766768089017136e-15)
(0.93739949442974968 -0.0327143154134346414 -1.33611937811940946e-15)
(0.932552760335106368 -0.00799035186614910006 -1.18381200786304664e-15)
(0.93342842246383817 0.0161010430928691384 -1.05054239559658303e-15)
(0.943639216022889471 0.0379512436222753172 -1.24382301674922374e-15)
(0.958087036426872429 0.0556330038813261513 -1.46959647322867072e-15)
(0.980629721026795464 0.0641673004747179282 -1.61178295415722616e-15)
(0.965261488554723823 -0.038909440975714249 -1.38390856788186991e-15)
(0.951641544837860232 -0.0245533680255543667 -1.29648213334463961e-15)
(0.94732662376296195 -0.00604946321142334729 -1.12744405547205091e-15)
(0.947895144266486245 0.0125563944116365341 -9.77469869083211404e-16)
(0.955396634024335167 0.0299241570610029178 -1.19741652233856186e-15)
(0.966851207282209524 0.0431117979638541843 -1.43230635283360934e-15)
(0.984561007263356824 0.0499922784231497039 -1.56793925293647726e-15)
(0.966958961054394717 -0.032689288090659796 -1.33691871010330713e-15)
(0.955692056347817398 -0.0209585711146969798 -1.26080381668837434e-15)
(0.951600691211622385 -0.00595459460858564077 -1.07488094839156887e-15)
(0.951618763724558669 0.00954378672557916127 -9.07686799514703961e-16)
(0.957848068832625521 0.0240075822921856086 -1.14151997750216746e-15)
(0.967075345538537801 0.035020476541247271 -1.38912379070942467e-15)
(0.981042217531087224 0.0415477924959319622 -1.5260930483223697e-15)
(0.999924113102832801 -0.00214191891844741538 -2.63441050849880436e-16)
(1.00611756583564782 -0.000736512248086788998 1.42116110619434059e-16)
(1.00549673673979068 0.0034656357521100317 1.51368911666396729e-15)
(1.01053435132598146 0.00648753126347109514 1.88528010327005852e-15)
(1.01053185675181534 0.0140295529539625 4.92989755419807215e-16)
(1.01462620017004634 0.0230228359821363013 -3.37157198696051628e-16)
(1.0105491274810694 0.0629535036279315618 -2.20433296464857817e-15)
(0.998369367202411873 -0.00548422884554274331 3.25555637069274112e-16)
(1.00970122644404325 0.000875471048002945864 -1.94182684345319421e-17)
(1.0084578453080344 0.00636545315483982247 -4.85066223239335233e-16)
(1.01507781175974676 0.00517788788226820982 1.02274661207820408e-15)
(1.01667246367916575 0.00816971891448722322 -3.86070423903496866e-17)
(1.03307234506846513 0.00866270296670110587 7.42784424229072471e-16)
(1.04556226050597711 -0.00660333665951687472 -4.27335910344780242e-16)
(0.996061625917591065 -0.0119767919599004079 5.28093804009289482e-16)
(1.01639814661532601 0.00799497518335853807 1.09370780674245488e-15)
(1.00910828653677043 0.00379429100910395629 7.95131198511033369e-16)
(1.01439750674187312 -0.00213544735551561516 -1.669084343253197e-15)
(1.01892250850898658 -0.00329404519955995038 -2.08843959894772399e-15)
(1.02212598418854772 -0.0124049271669341345 -5.74531680374560804e-16)
(1.03186683770564325 -0.0274814211458755606 8.61233739076573536e-16)
(0.99613966731263337 -0.00840769938657540301 -8.02686126422254425e-16)
(1.02327326312261002 0.011093453125401425 1.08443261147090479e-15)
(1.00060327426710938 0.00046343829921900693 2.94541963631310681e-15)
(1.01034311140251631 -0.00888283393169094285 -2.37968790177917224e-15)
(1.01052177658103814 -0.00546454035614282827 -3.14126934213779686e-15)
(1.00520458358741682 -0.0229606221619291957 -2.71477871043237402e-15)
(1.00364391705040434 -0.0223293177538988787 3.61764155514517641e-16)